/*--------------------------------*- C++ -*----------------------------------*\
  =========                 |
  \\      /  F ield         | OpenFOAM: The Open Source CFD Toolbox
   \\    /   O peration     | Website:  https://openfoam.org
    \\  /    A nd           | Version:  8
     \\/     M anipulation  |
\*---------------------------------------------------------------------------*/
FoamFile
{
    version     2.0;
    format      ascii;
    class       volScalarField;
    location    "0.05";
    object      alpha.oil;
}
// * * * * * * * * * * * * * * * * * * * * * * * * * * * * * * * * * * * * * //

dimensions      [0 0 0 0 0 0 0];

internalField   nonuniform List<scalar> 
180000
(
5.14591e-17
5.45468e-20
6.67996e-21
1.12913e-23
0
1.19075e-23
6.70449e-21
5.38146e-20
5.11812e-17
0
2.34886e-20
0
2.33291e-21
6.28386e-21
2.52966e-21
3.55238e-20
0
0
0.00206143
0.000956928
0.000470466
0.000257126
0.000195799
0.00025685
0.000470062
0.000956606
0.00206201
0.478736
0.478841
0.479073
0.479225
0.479219
0.479224
0.479074
0.478846
0.478729
0.484204
0.48424
0.484159
0.484104
0.484133
0.484106
0.484158
0.484234
0.484209
0.483997
0.484004
0.483991
0.483983
0.48398
0.483983
0.483991
0.484004
0.483996
0.483883
0.483911
0.483905
0.483899
0.483899
0.483899
0.483906
0.483912
0.483883
0.48379
0.483781
0.483797
0.483812
0.483814
0.483813
0.4838
0.483783
0.483793
0.48377
0.483811
0.483763
0.483775
0.48376
0.483775
0.483788
0.483814
0.483779
3.9873e-11
9.57381e-13
1.0623e-14
3.72329e-18
1.48762e-22
3.71741e-18
1.06097e-14
9.56585e-13
3.98527e-11
1.97474e-19
0
1.82229e-33
0
0
0
1.75067e-32
2.88273e-20
0
0.00275782
0.000930973
0.000217528
9.52854e-07
0
1.22757e-06
0.000217864
0.000930604
0.00275671
0.449376
0.450533
0.451369
0.451751
0.451842
0.45175
0.451368
0.450533
0.44938
0.48076
0.480584
0.48058
0.480591
0.480583
0.480591
0.48058
0.480584
0.480757
0.483268
0.483192
0.483177
0.483175
0.483173
0.483175
0.483178
0.483192
0.483268
0.483097
0.483062
0.483066
0.483064
0.483066
0.483066
0.483069
0.483065
0.483097
0.482892
0.482859
0.482872
0.482904
0.482911
0.482907
0.482875
0.482862
0.482888
0.482693
0.482808
0.482659
0.482681
0.482676
0.48268
0.482678
0.482804
0.482683
9.23844e-11
1.40396e-11
1.68596e-13
4.57776e-12
3.04626e-14
4.56983e-12
1.6838e-13
1.40328e-11
9.23427e-11
0
0
1.26218e-31
2.21613e-14
1.57256e-15
2.21142e-14
2.52435e-31
0
1.54581e-29
0.00103036
0.000124975
0
0
5.88118e-22
4.77246e-44
0
0.000124937
0.00102901
0.392451
0.394196
0.395325
0.395939
0.396156
0.395938
0.395324
0.394195
0.392454
0.463076
0.462898
0.463033
0.463135
0.463186
0.463134
0.463032
0.462899
0.463075
0.47242
0.472192
0.472262
0.472323
0.472339
0.472323
0.472263
0.472191
0.472421
0.473603
0.473409
0.473394
0.47338
0.473373
0.473382
0.473393
0.473412
0.473603
0.473682
0.473385
0.473294
0.4733
0.473294
0.473299
0.473296
0.473383
0.47369
0.473729
0.472459
0.472313
0.472692
0.472829
0.472584
0.472459
0.472312
0.473851
1.22924e-10
2.6524e-11
1.16276e-12
2.42256e-11
3.66243e-13
2.41909e-11
1.16269e-12
2.65158e-11
1.22898e-10
3.56805e-12
1.09153e-12
2.71481e-14
3.9585e-13
1.9733e-14
3.95323e-13
2.71003e-14
1.09074e-12
3.5703e-12
3.46927e-20
1.28021e-21
0
0
1.06949e-34
0
0
0
5.78495e-21
0.289938
0.292215
0.294356
0.295706
0.29621
0.295706
0.294356
0.292214
0.289941
0.407926
0.407732
0.407864
0.408131
0.408226
0.40813
0.407864
0.407731
0.407925
0.42533
0.425214
0.425232
0.425251
0.425264
0.425251
0.425232
0.425214
0.425331
0.428475
0.428132
0.428018
0.42795
0.427927
0.427949
0.428017
0.428133
0.428478
0.429516
0.429043
0.428668
0.42856
0.428523
0.428568
0.428642
0.42906
0.429501
0.431501
0.430607
0.430213
0.429865
0.429754
0.429914
0.430132
0.430665
0.431462
8.86053e-11
1.85699e-11
4.32638e-12
1.04503e-10
1.3699e-12
1.04353e-10
4.3313e-12
1.85787e-11
8.86251e-11
6.75073e-12
1.74077e-12
8.50895e-14
1.97181e-12
4.42642e-14
1.96854e-12
8.50553e-14
1.7386e-12
6.75463e-12
3.20664e-30
0
5.70095e-32
6.97239e-31
3.56368e-34
0
5.49692e-32
0
0
0.156183
0.159266
0.162195
0.164056
0.1647
0.164057
0.162195
0.159266
0.156184
0.29273
0.29342
0.294205
0.294838
0.295061
0.294838
0.294205
0.293421
0.292732
0.323292
0.323226
0.323061
0.322965
0.322954
0.322964
0.32306
0.323225
0.32329
0.327562
0.327187
0.326919
0.326785
0.326744
0.326784
0.326917
0.327186
0.327558
0.329122
0.328549
0.328093
0.328003
0.327962
0.328003
0.328095
0.328546
0.329126
0.331456
0.331411
0.330949
0.330436
0.330261
0.330529
0.330801
0.331532
0.331308
3.01694e-11
2.67989e-11
2.38191e-11
2.73977e-10
3.19737e-12
2.7362e-10
2.38599e-11
2.68613e-11
3.02048e-11
6.6667e-12
1.65771e-12
3.30471e-13
5.80866e-12
1.15832e-13
5.80072e-12
3.30866e-13
1.65688e-12
6.67274e-12
0
0
1.42225e-31
0
5.60693e-33
3.26742e-31
0
1.63506e-30
4.85364e-30
0.0546635
0.0571076
0.0594062
0.0608477
0.0613366
0.0608475
0.0594064
0.0571091
0.0546647
0.151971
0.154079
0.155893
0.157084
0.157476
0.157084
0.155894
0.154079
0.151971
0.195316
0.195606
0.195659
0.195707
0.195743
0.195707
0.195659
0.195607
0.195316
0.202832
0.202688
0.202395
0.202254
0.202217
0.202255
0.202395
0.202688
0.20283
0.204624
0.204305
0.204007
0.203927
0.203893
0.203931
0.204009
0.204305
0.204627
0.206462
0.205882
0.205784
0.20585
0.205872
0.205816
0.205824
0.205841
0.206522
1.84256e-11
9.58007e-11
2.05969e-10
4.17918e-10
5.41706e-12
4.17399e-10
2.06041e-10
9.55109e-11
1.84464e-11
5.61395e-12
2.80768e-12
3.05671e-12
1.38662e-11
3.3356e-13
1.38577e-11
3.05771e-12
2.80735e-12
5.60972e-12
6.53357e-19
4.55339e-19
1.72831e-19
0
4.8553e-19
4.94422e-19
1.11828e-19
1.03083e-18
2.61766e-19
0.0117766
0.0127573
0.0137012
0.0142932
0.0144926
0.0142933
0.0137013
0.0127575
0.0117772
0.0513544
0.0533575
0.0550384
0.0560932
0.0564394
0.0560935
0.0550388
0.053357
0.0513542
0.0864521
0.0874478
0.0880803
0.0884637
0.0885946
0.0884616
0.0880808
0.0874478
0.0864524
0.0979289
0.098146
0.0981017
0.0980862
0.0980896
0.0980874
0.0981025
0.0981463
0.0979288
0.100691
0.100629
0.100509
0.100484
0.10048
0.100488
0.10051
0.100631
0.100693
0.1027
0.102614
0.102603
0.10257
0.102551
0.102573
0.102597
0.102635
0.102695
5.64491e-11
3.13046e-10
1.20733e-09
4.81724e-10
4.00372e-12
4.81103e-10
1.20675e-09
3.12679e-10
5.62229e-11
2.68597e-11
7.88307e-12
2.08677e-11
3.29798e-11
4.88948e-13
3.29555e-11
2.0863e-11
7.87283e-12
2.67482e-11
0
0
3.62733e-20
0
0
1.01265e-19
1.79247e-20
0
0
0.00138329
0.00157069
0.00176438
0.00188798
0.00192981
0.001888
0.00176448
0.00157068
0.00138334
0.0097619
0.0105523
0.011235
0.0116615
0.0118028
0.0116622
0.0112356
0.0105529
0.00976192
0.0238583
0.0247579
0.0253951
0.0257719
0.025896
0.0257718
0.0253946
0.0247584
0.0238586
0.032757
0.0332006
0.033396
0.0335078
0.0335463
0.0335084
0.0333971
0.0332021
0.0327581
0.0358497
0.0360031
0.0360119
0.0360369
0.0360487
0.0360391
0.0360123
0.0360004
0.0358484
0.0374056
0.0374986
0.0375116
0.0375376
0.0375393
0.0375347
0.0375137
0.0374931
0.0374047
2.33705e-10
7.54212e-10
3.35161e-09
3.8075e-10
2.00601e-12
3.80438e-10
3.34951e-09
7.54161e-10
2.32809e-10
7.28993e-11
2.04422e-11
8.45275e-11
5.24056e-11
3.8065e-13
5.23441e-11
8.44721e-11
2.04183e-11
7.26834e-11
0
2.77684e-22
0
0
1.07139e-21
0
0
2.84982e-21
2.92796e-21
7.18695e-05
8.6826e-05
0.000103862
0.00011521
0.000119101
0.000115204
0.000103877
8.68258e-05
7.18713e-05
0.000874988
0.00100175
0.00111729
0.0011909
0.00121573
0.00119097
0.00111749
0.00100201
0.000875
0.00340986
0.00370417
0.00392657
0.00405978
0.00410409
0.00406011
0.00392653
0.00370464
0.00340999
0.00641586
0.006691
0.00684684
0.00693627
0.00696568
0.00693694
0.0068472
0.00669171
0.00641622
0.00812682
0.00829087
0.00834334
0.00837724
0.0083897
0.00837807
0.00834367
0.00828763
0.00812635
0.00897675
0.00905934
0.00908756
0.0091059
0.00911263
0.00910491
0.00908599
0.00905518
0.00897752
6.34543e-10
1.76765e-09
5.22036e-09
2.66583e-10
5.79519e-13
2.66418e-10
5.21868e-09
1.76924e-09
6.33475e-10
1.04627e-10
4.77832e-11
2.31479e-10
5.1359e-11
1.55671e-13
5.12985e-11
2.31386e-10
4.77917e-11
1.04524e-10
5.48384e-23
9.38912e-23
0
5.96212e-23
1.67414e-22
7.9978e-23
5.09785e-23
5.13741e-23
5.40069e-23
1.40281e-06
1.82815e-06
2.36918e-06
2.75329e-06
2.888e-06
2.75278e-06
2.36979e-06
1.82819e-06
1.40293e-06
3.11916e-05
3.84282e-05
4.55269e-05
5.0225e-05
5.18417e-05
5.02178e-05
4.55439e-05
3.84507e-05
3.11929e-05
0.00020785
0.000241311
0.000268254
0.00028491
0.00029054
0.000284949
0.000268271
0.000241373
0.000207876
0.000595479
0.000653907
0.000690548
0.000711985
0.000719122
0.000712197
0.000690546
0.000653866
0.000595599
0.000971333
0.00102463
0.00104777
0.00106077
0.00106532
0.00106104
0.00104789
0.00102438
0.000971709
0.00120284
0.00123646
0.00125039
0.00125857
0.00126147
0.00125906
0.00125085
0.00123786
0.00120278
1.65873e-09
3.69229e-09
4.79209e-09
1.72495e-10
1.57855e-13
1.72428e-10
4.79056e-09
3.69775e-09
1.66032e-09
1.31511e-10
9.59775e-11
3.97525e-10
4.07041e-11
2.315e-26
4.06847e-11
3.97543e-10
9.61989e-11
1.31593e-10
6.06294e-10
1.42621e-10
1.94411e-10
1.3087e-10
1.34915e-10
1.30845e-10
1.94472e-10
1.4267e-10
6.09831e-10
1.04261e-08
1.29681e-08
1.80162e-08
2.20134e-08
2.34731e-08
2.20034e-08
1.80202e-08
1.29687e-08
1.04368e-08
3.58111e-07
4.78594e-07
6.06575e-07
6.95558e-07
7.26808e-07
6.95151e-07
6.06888e-07
4.78959e-07
3.58182e-07
4.14629e-06
5.2358e-06
6.17573e-06
6.78196e-06
6.99135e-06
6.78314e-06
6.17724e-06
5.23775e-06
4.14771e-06
1.94078e-05
2.29267e-05
2.53403e-05
2.67986e-05
2.72931e-05
2.68181e-05
2.53422e-05
2.29257e-05
1.94128e-05
4.49395e-05
5.00484e-05
5.26338e-05
5.40959e-05
5.45928e-05
5.41234e-05
5.26629e-05
5.00905e-05
4.49578e-05
6.71648e-05
7.18961e-05
7.34814e-05
7.45755e-05
7.49358e-05
7.45722e-05
7.35006e-05
7.1905e-05
6.709e-05
4.73414e-09
6.02152e-09
2.64226e-09
6.10418e-11
3.75102e-14
6.10681e-11
2.64172e-09
6.03344e-09
4.74577e-09
2.46937e-10
2.63871e-10
3.98748e-10
1.90859e-11
2.34629e-26
1.90876e-11
3.98835e-10
2.64573e-10
2.47339e-10
9.87616e-10
3.62644e-10
3.80247e-10
3.56462e-10
3.93642e-10
3.56511e-10
3.80348e-10
3.62866e-10
9.93803e-10
7.86012e-10
4.46899e-10
4.73925e-10
5.54911e-10
6.09945e-10
5.55044e-10
4.73954e-10
4.46883e-10
7.90281e-10
1.391e-09
1.74686e-09
2.27246e-09
2.71984e-09
2.88781e-09
2.71764e-09
2.27325e-09
1.7478e-09
1.39208e-09
2.07884e-08
2.89636e-08
3.64834e-08
4.16004e-08
4.34197e-08
4.16107e-08
3.64979e-08
2.89775e-08
2.08024e-08
1.65578e-07
2.12883e-07
2.47992e-07
2.70152e-07
2.77797e-07
2.70432e-07
2.48064e-07
2.1292e-07
1.6546e-07
5.70357e-07
6.81171e-07
7.40668e-07
7.75685e-07
7.87575e-07
7.75783e-07
7.41112e-07
6.8142e-07
5.69622e-07
1.07446e-06
1.21531e-06
1.26327e-06
1.296e-06
1.30695e-06
1.29634e-06
1.26339e-06
1.21393e-06
1.07452e-06
9.23565e-09
5.80916e-09
8.08454e-10
1.01677e-11
4.74857e-15
1.01783e-11
8.08391e-10
5.81447e-09
9.25397e-09
5.80533e-10
5.97142e-10
2.32393e-10
4.66386e-12
1.41787e-26
4.64346e-12
2.32483e-10
5.98335e-10
5.81809e-10
8.89349e-10
3.04792e-10
2.99974e-10
3.02453e-10
3.37211e-10
3.02577e-10
3.00013e-10
3.04954e-10
8.94376e-10
4.7464e-10
2.27411e-10
2.38551e-10
2.83447e-10
3.12714e-10
2.83617e-10
2.3858e-10
2.27464e-10
4.77256e-10
1.4226e-10
1.43512e-10
1.42006e-10
1.75842e-10
1.90842e-10
1.7594e-10
1.42022e-10
1.43502e-10
1.4266e-10
4.35333e-11
6.68793e-11
7.56292e-11
8.89609e-11
9.411e-11
8.89928e-11
7.56382e-11
6.68831e-11
4.35302e-11
2.818e-10
3.95825e-10
4.81504e-10
5.40613e-10
5.61351e-10
5.40981e-10
4.81592e-10
3.95725e-10
2.81091e-10
1.41321e-09
1.82056e-09
2.05042e-09
2.18795e-09
2.23516e-09
2.18769e-09
2.05095e-09
1.81924e-09
1.41166e-09
3.4081e-09
4.04309e-09
4.29447e-09
4.45822e-09
4.51413e-09
4.46778e-09
4.29977e-09
4.05591e-09
3.41503e-09
9.49087e-09
3.59397e-09
1.57726e-10
8.15893e-13
2.03275e-16
8.17471e-13
1.57599e-10
3.59249e-09
9.50589e-09
1.2719e-09
6.22334e-10
7.50265e-11
4.18464e-13
0
4.14575e-13
7.50142e-11
6.22788e-10
1.27445e-09
5.28207e-10
1.57764e-10
1.2939e-10
1.38802e-10
1.56688e-10
1.38888e-10
1.29391e-10
1.57852e-10
5.30465e-10
2.63233e-10
1.29623e-10
1.24411e-10
1.60146e-10
1.78519e-10
1.60255e-10
1.24439e-10
1.29664e-10
2.64581e-10
7.11614e-11
6.78061e-11
7.22103e-11
9.28332e-11
1.03088e-10
9.29024e-11
7.22209e-11
6.78013e-11
7.14101e-11
1.15485e-11
1.57011e-11
1.64439e-11
2.04786e-11
2.19615e-11
2.04972e-11
1.64475e-11
1.56979e-11
1.15482e-11
9.81785e-13
1.37655e-12
1.23372e-12
1.37315e-12
1.4049e-12
1.37435e-12
1.23399e-12
1.376e-12
9.78816e-13
5.07382e-13
6.8015e-13
7.81146e-13
8.42184e-13
8.63081e-13
8.42742e-13
7.81354e-13
6.81595e-13
5.07847e-13
1.37582e-12
1.68008e-12
1.79834e-12
1.88715e-12
1.91701e-12
1.89002e-12
1.80025e-12
1.68856e-12
1.37015e-12
6.2041e-09
1.10978e-09
1.9766e-11
2.98603e-14
2.79708e-18
2.98982e-14
1.97328e-11
1.10874e-09
6.21049e-09
1.61079e-09
3.68382e-10
1.32522e-11
2.27923e-28
0
0
1.32507e-11
3.68352e-10
1.61309e-09
3.1149e-10
8.8839e-11
3.63238e-11
4.55475e-11
5.28671e-11
4.55801e-11
3.63314e-11
8.88895e-11
3.12296e-10
1.07465e-10
5.53864e-11
4.96343e-11
6.93576e-11
7.96577e-11
6.94039e-11
4.96436e-11
5.54009e-11
1.07948e-10
3.09262e-11
2.84674e-11
3.24888e-11
4.50181e-11
5.08615e-11
4.50569e-11
3.24945e-11
2.84692e-11
3.10234e-11
6.22601e-12
8.24348e-12
8.91084e-12
1.17323e-11
1.27349e-11
1.17447e-11
8.91459e-12
8.24236e-12
6.2293e-12
5.44526e-13
7.54552e-13
7.43582e-13
8.67947e-13
9.02833e-13
8.6893e-13
7.4391e-13
7.5425e-13
5.43719e-13
9.89756e-15
9.61905e-15
8.44956e-15
8.42405e-15
8.10766e-15
8.43561e-15
8.45367e-15
9.61602e-15
9.85354e-15
5.61889e-17
7.52718e-17
8.51993e-17
8.92875e-17
9.10283e-17
8.93131e-17
8.52255e-17
7.50089e-17
5.58524e-17
2.05171e-09
2.0442e-10
1.91917e-12
7.90458e-16
4.25042e-20
7.89676e-16
1.91492e-12
2.04333e-10
2.05131e-09
1.04839e-09
1.49485e-10
1.23054e-12
3.00002e-28
0
0
1.23061e-12
1.49491e-10
1.04907e-09
2.29316e-10
3.80613e-11
6.00137e-12
9.38195e-12
1.14735e-11
9.39122e-12
6.00256e-12
3.80715e-11
2.29731e-10
3.4106e-11
1.34446e-11
1.11619e-11
1.77727e-11
2.1146e-11
1.77893e-11
1.11635e-11
1.34484e-11
3.41863e-11
9.16646e-12
8.60168e-12
9.30666e-12
1.44646e-11
1.67793e-11
1.44797e-11
9.30933e-12
8.60216e-12
9.18405e-12
2.53126e-12
3.4967e-12
4.09142e-12
5.76842e-12
6.46022e-12
5.77465e-12
4.09304e-12
3.49629e-12
2.5339e-12
2.96591e-13
3.94707e-13
4.63524e-13
5.79742e-13
6.12512e-13
5.80441e-13
4.63734e-13
3.94639e-13
2.96501e-13
8.73463e-15
8.87173e-15
8.15441e-15
8.24461e-15
7.74936e-15
8.25709e-15
8.16207e-15
8.86974e-15
8.72634e-15
2.84608e-18
2.61265e-18
3.36672e-20
6.82992e-35
0
4.70669e-33
3.85241e-20
2.60909e-18
2.85229e-18
2.77341e-10
2.83852e-11
1.42098e-13
3.7049e-17
2.16557e-21
3.71093e-17
1.4184e-13
2.83589e-11
2.76891e-10
3.44032e-10
3.31284e-11
7.76394e-14
0
2.70623e-30
2.38317e-30
7.7602e-14
3.31072e-11
3.44148e-10
1.38877e-10
6.98306e-12
3.46798e-13
6.15172e-13
8.18873e-13
6.16043e-13
3.46911e-13
6.98459e-12
1.38917e-10
1.44491e-11
1.79778e-12
1.09823e-12
2.20354e-12
2.79417e-12
2.20678e-12
1.0986e-12
1.79838e-12
1.44486e-11
1.64127e-12
1.33271e-12
1.43374e-12
2.57652e-12
3.14543e-12
2.57969e-12
1.43426e-12
1.33271e-12
1.64223e-12
5.00814e-13
6.68879e-13
9.05049e-13
1.49586e-12
1.75592e-12
1.49772e-12
9.05299e-13
6.68903e-13
5.01322e-13
1.02758e-13
1.47551e-13
1.833e-13
2.52997e-13
2.69797e-13
2.5334e-13
1.83412e-13
1.47556e-13
1.02911e-13
6.28138e-15
8.3253e-15
7.85916e-15
8.11156e-15
7.76442e-15
8.12245e-15
7.866e-15
8.32326e-15
6.30336e-15
2.17219e-17
1.90355e-17
1.97723e-17
1.28285e-17
1.05483e-17
1.28456e-17
1.97842e-17
1.90195e-17
2.18875e-17
1.50038e-11
1.82931e-12
6.36789e-15
2.80957e-18
1.89427e-22
2.82418e-18
6.37078e-15
1.82408e-12
1.49693e-11
5.66064e-11
2.9898e-12
6.56973e-15
3.26875e-19
0
3.25128e-19
6.57444e-15
2.98736e-12
5.655e-11
3.55065e-11
1.19234e-12
7.42127e-15
1.2229e-14
1.97257e-14
1.22556e-14
7.42824e-15
1.19365e-12
3.54625e-11
6.1281e-12
1.33464e-13
3.85839e-14
1.03916e-13
1.48787e-13
1.04123e-13
3.86121e-14
1.33575e-13
6.12888e-12
2.91429e-13
5.90285e-14
7.1021e-14
1.6861e-13
2.2215e-13
1.68884e-13
7.10484e-14
5.90476e-14
2.91277e-13
4.04308e-14
5.13944e-14
7.05723e-14
1.45117e-13
1.79847e-13
1.45356e-13
7.06071e-14
5.14011e-14
4.0488e-14
1.42801e-14
2.83788e-14
3.59496e-14
5.86935e-14
6.61163e-14
5.87843e-14
3.59705e-14
2.83757e-14
1.4347e-14
1.71139e-15
2.77706e-15
3.98958e-15
4.83602e-15
4.8966e-15
4.84297e-15
3.99123e-15
2.77661e-15
1.72454e-15
2.41739e-17
1.08424e-17
2.36795e-17
1.8036e-17
1.40318e-17
1.80588e-17
2.3696e-17
1.08471e-17
2.44551e-17
2.63478e-13
2.71049e-14
2.49822e-16
1.59499e-19
1.85618e-23
1.61099e-19
2.50616e-16
2.69946e-14
2.62124e-13
2.38004e-12
1.82758e-13
5.54505e-16
2.28806e-20
8.15553e-38
2.28856e-20
5.54872e-16
1.82822e-13
2.37435e-12
3.45196e-12
1.42409e-13
9.50488e-17
1.09849e-16
2.23046e-16
1.10172e-16
9.52679e-17
1.42562e-13
3.45003e-12
1.4091e-12
7.89948e-15
2.59576e-16
1.02162e-15
1.72675e-15
1.02452e-15
2.59906e-16
7.92371e-15
1.40811e-12
6.69785e-14
6.6443e-16
7.26061e-16
2.61688e-15
3.83881e-15
2.62326e-15
7.26631e-16
6.64953e-16
6.69458e-14
9.93085e-16
1.12547e-15
1.56024e-15
4.30185e-15
5.88339e-15
4.31122e-15
1.56122e-15
1.12522e-15
9.96276e-16
4.12981e-16
9.17902e-16
1.63991e-15
3.67733e-15
4.61716e-15
3.68445e-15
1.64057e-15
9.1773e-16
4.16456e-16
1.23404e-16
1.59061e-16
3.87228e-16
5.79567e-16
5.94215e-16
5.80575e-16
3.87488e-16
1.59183e-16
1.24878e-16
1.23149e-17
1.4715e-17
1.77396e-17
1.12108e-17
8.74315e-18
1.12207e-17
1.77703e-17
1.47324e-17
1.25204e-17
3.77693e-16
1.62449e-16
5.60356e-18
5.96182e-21
2.7151e-24
6.13279e-21
5.63818e-18
1.62032e-16
3.73249e-16
2.81685e-14
4.54911e-15
1.08812e-17
5.51344e-21
3.72926e-39
5.52643e-21
1.09035e-17
4.54682e-15
2.81686e-14
1.12553e-13
3.7401e-15
1.90836e-18
1.24439e-19
3.16645e-19
1.24924e-19
1.91289e-18
3.74345e-15
1.12432e-13
7.2213e-14
4.36869e-16
2.61724e-19
1.30607e-18
2.71353e-18
1.31157e-18
2.62254e-19
4.38848e-16
7.21309e-14
5.77847e-15
7.04872e-18
1.20722e-18
7.10012e-18
1.24382e-17
7.12491e-18
1.20865e-18
7.09921e-18
5.79058e-15
6.52289e-17
2.15069e-18
4.40361e-18
1.99825e-17
3.2016e-17
2.00391e-17
4.40628e-18
2.14996e-18
6.56673e-17
1.55306e-18
2.1282e-18
7.74614e-18
2.49491e-17
3.32352e-17
2.50132e-17
7.7538e-18
2.1301e-18
1.57465e-18
1.96529e-18
5.95237e-18
1.22341e-17
1.82882e-17
2.01543e-17
1.83195e-17
1.22564e-17
5.95948e-18
2.00809e-18
7.40944e-19
3.94491e-18
6.70397e-18
6.28764e-18
6.61367e-18
6.29887e-18
6.71632e-18
3.94747e-18
7.60883e-19
2.05861e-19
4.05944e-19
7.68789e-20
9.55031e-22
1.26241e-24
9.64124e-22
7.55921e-20
4.04477e-19
2.05717e-19
1.11555e-16
1.08564e-17
1.73762e-19
1.52087e-21
3.88063e-26
1.50657e-21
1.73757e-19
1.08416e-17
1.11341e-16
5.05884e-16
2.31108e-17
8.93677e-20
1.25576e-22
3.63953e-23
1.18532e-22
8.85564e-20
2.31506e-17
5.05045e-16
4.75093e-16
1.35258e-17
2.69495e-21
2.76664e-22
7.09798e-22
2.77364e-22
2.55259e-21
1.35769e-17
4.75659e-16
1.72699e-16
1.64432e-19
1.95271e-22
1.75517e-21
3.96601e-21
1.76257e-21
1.89367e-22
1.65464e-19
1.7353e-16
2.66341e-18
1.98983e-22
5.59128e-22
5.11483e-21
9.3595e-21
5.13526e-21
5.58672e-22
1.99806e-22
2.68833e-18
5.60912e-22
1.68967e-21
5.905e-21
2.14705e-20
3.11133e-20
2.15266e-20
5.92288e-21
1.69369e-21
5.76077e-22
1.48417e-21
3.82372e-20
1.31023e-19
2.60373e-19
4.27685e-19
2.61129e-19
1.31354e-19
3.82585e-20
1.54506e-21
7.24135e-22
1.08518e-20
1.66584e-19
3.48469e-19
4.94376e-19
3.49617e-19
1.66964e-19
1.08401e-20
7.22202e-22
1.53518e-19
9.30845e-21
4.39704e-22
8.77877e-23
2.83237e-25
8.6651e-23
4.03147e-22
9.23688e-21
1.54015e-19
6.09056e-20
1.06146e-20
2.74926e-21
1.39085e-22
4.3623e-25
1.32717e-22
2.67805e-21
1.06163e-20
6.07036e-20
1.34769e-19
6.12263e-20
1.41561e-21
8.12645e-23
1.02757e-25
7.60137e-23
1.31018e-21
6.12809e-20
1.34889e-19
6.70036e-19
3.16104e-20
4.43822e-22
1.53285e-23
4.37268e-26
1.38869e-23
3.95054e-22
3.16983e-20
6.7291e-19
3.97625e-19
6.54276e-22
5.53808e-23
2.04072e-25
1.07352e-25
1.81568e-25
4.84928e-23
6.58334e-22
4.00631e-19
1.29406e-21
1.44111e-22
5.91178e-25
2.47837e-25
3.39234e-25
2.47163e-25
4.8938e-25
1.43628e-22
1.32719e-21
1.4082e-22
1.05746e-23
4.15511e-23
3.63081e-23
2.82633e-23
3.60721e-23
4.15765e-23
1.03764e-23
1.45985e-22
1.19452e-25
5.02931e-23
2.71036e-22
2.14737e-22
4.27321e-22
2.13385e-22
2.71268e-22
5.04859e-23
1.6639e-25
7.89258e-22
3.55266e-21
8.62673e-21
2.71949e-21
1.08053e-21
2.70924e-21
8.64533e-21
3.55866e-21
7.95928e-22
5.9061e-20
4.41937e-21
4.61291e-23
4.66257e-24
2.26692e-25
4.55861e-24
4.42159e-23
4.43836e-21
5.95186e-20
9.49648e-21
2.06937e-21
4.01782e-23
4.30643e-23
8.10556e-25
4.08165e-23
3.47849e-23
2.07251e-21
9.53446e-21
1.49884e-21
1.55859e-22
7.14314e-23
4.2858e-23
9.95324e-26
3.96452e-23
6.03303e-23
1.56185e-22
1.5012e-21
1.04855e-22
5.35583e-24
8.08633e-23
4.32968e-24
1.70552e-27
3.81121e-24
6.93914e-23
5.37933e-24
1.05161e-22
3.91825e-24
5.29557e-23
1.78294e-23
1.35873e-25
1.07123e-29
1.18588e-25
1.5024e-23
5.22884e-23
3.9888e-24
5.14098e-23
4.505e-23
4.31412e-25
1.40819e-26
2.96498e-27
1.38495e-26
3.58719e-25
4.41737e-23
5.29732e-23
2.72718e-23
2.99441e-24
1.09741e-23
4.9483e-24
2.80858e-24
4.90841e-24
1.09803e-23
2.92902e-24
2.92091e-23
1.5673e-25
1.14775e-23
1.28533e-22
1.40215e-22
7.94896e-23
1.39238e-22
1.28752e-22
1.15184e-23
2.29834e-25
2.41956e-22
1.38848e-21
2.25315e-21
1.12398e-21
5.35943e-22
1.12103e-21
2.25663e-21
1.39091e-21
2.46779e-22
1.89839e-20
2.65161e-21
9.77974e-24
5.53319e-25
1.24693e-25
5.26131e-25
9.85994e-24
2.67222e-21
1.8976e-20
7.9798e-21
9.34956e-22
3.94072e-24
9.6339e-24
2.31046e-25
9.03101e-24
3.48958e-24
9.38828e-22
8.02639e-21
7.4428e-22
4.30726e-23
4.00423e-24
5.35123e-24
3.67019e-26
4.81619e-24
3.21518e-24
4.29229e-23
7.50508e-22
9.93966e-24
2.40524e-24
4.24666e-24
1.36381e-24
4.57311e-27
1.21924e-24
3.42806e-24
2.40979e-24
9.89067e-24
7.0205e-25
1.74096e-24
2.19506e-24
1.87394e-25
2.74676e-29
1.6609e-25
1.80443e-24
1.6891e-24
6.91837e-25
1.37425e-24
1.99047e-24
1.60884e-25
4.46645e-27
8.22292e-28
4.27762e-27
1.43983e-25
1.90345e-24
1.44663e-24
3.97701e-25
2.06393e-24
2.66559e-24
1.0878e-24
8.47793e-25
1.08581e-24
2.67016e-24
2.01272e-24
7.16882e-25
3.22189e-26
1.59288e-24
3.71698e-23
1.42956e-22
8.31125e-23
1.42998e-22
3.72881e-23
1.58904e-24
6.0308e-26
2.13587e-25
6.01534e-24
4.61936e-23
1.28595e-22
8.60469e-23
1.28744e-22
4.62659e-23
6.03525e-24
2.2633e-25
9.0356e-21
8.76897e-22
1.26669e-24
3.70937e-26
3.95253e-27
3.44039e-26
1.25613e-24
8.84862e-22
9.07677e-21
4.34582e-21
2.15741e-22
1.31577e-24
2.02194e-25
1.19362e-26
1.82452e-25
1.27799e-24
2.15778e-22
4.37483e-21
1.32904e-22
3.49505e-23
3.35675e-25
2.53651e-25
1.88639e-26
2.30006e-25
3.23189e-25
3.49094e-23
1.32114e-22
1.34936e-23
3.13344e-24
6.49484e-26
3.53928e-25
2.57532e-27
3.22068e-25
4.94283e-26
3.14898e-24
1.38599e-23
1.25945e-24
1.17382e-25
5.6591e-26
3.82507e-26
5.3792e-32
3.20393e-26
4.79333e-26
1.12725e-25
1.29413e-24
5.73285e-26
6.12526e-25
3.01565e-27
7.15995e-28
2.64793e-28
7.1547e-28
2.98281e-27
5.958e-25
7.21323e-26
1.04992e-25
6.91778e-25
2.59971e-25
1.17263e-25
1.30877e-25
1.18084e-25
2.60781e-25
6.72141e-25
1.43931e-25
5.66764e-27
1.03568e-25
1.10422e-24
2.21953e-23
1.46109e-23
2.23919e-23
1.10619e-24
1.02971e-25
9.87302e-27
3.91464e-27
6.22525e-25
5.09448e-24
1.0734e-23
6.2649e-24
1.07178e-23
5.10397e-24
6.26382e-25
3.49787e-27
2.16513e-21
7.12441e-23
8.64968e-25
3.62332e-27
1.20358e-27
3.59353e-27
8.66507e-25
7.10586e-23
2.1905e-21
3.18274e-22
6.6977e-23
9.67665e-25
5.45761e-27
3.19554e-27
5.32507e-27
9.7999e-25
6.67999e-23
3.18333e-22
1.27597e-22
3.49333e-23
2.18219e-26
9.81005e-27
2.30593e-27
9.19983e-27
2.22274e-26
3.49984e-23
1.2759e-22
4.66186e-23
1.0653e-24
1.48769e-28
6.10032e-27
4.79959e-31
5.27107e-27
1.10826e-28
1.07724e-24
4.66587e-23
5.03218e-25
7.66852e-27
4.46865e-29
1.18417e-31
3.79883e-33
7.55286e-32
3.95181e-29
7.37675e-27
4.95757e-25
5.45298e-27
5.8304e-26
8.43962e-31
9.09351e-29
5.40945e-29
9.3096e-29
7.36781e-31
5.80034e-26
9.03141e-27
2.21659e-26
1.14867e-26
1.17643e-26
7.2515e-27
1.40359e-26
7.43655e-27
1.18119e-26
1.1199e-26
3.73454e-26
4.60229e-27
9.45827e-27
4.59086e-25
2.9285e-24
1.77278e-24
2.91084e-24
4.61356e-25
9.46488e-27
4.42363e-27
1.85848e-28
5.50116e-26
1.24521e-24
3.0359e-24
1.75235e-24
3.03981e-24
1.2509e-24
5.53323e-26
1.37074e-32
7.56252e-23
2.32054e-23
7.2197e-25
8.3319e-28
6.67895e-28
8.03497e-28
7.34093e-25
2.33638e-23
7.70286e-23
1.14818e-22
3.79954e-23
7.95868e-26
1.75684e-28
1.46878e-28
1.83522e-28
8.37915e-26
3.8343e-23
1.15895e-22
1.32843e-22
6.26069e-24
7.89331e-30
2.50267e-29
3.87591e-32
2.36786e-29
8.77897e-30
6.37205e-24
1.33139e-22
1.14517e-23
1.38027e-28
1.65639e-31
5.80905e-33
8.20264e-33
4.38251e-33
1.96823e-31
1.58588e-28
1.13994e-23
7.6463e-28
6.42592e-29
7.74074e-33
2.06125e-32
7.09016e-33
1.51915e-32
6.7637e-33
6.47315e-29
7.46188e-28
2.32254e-28
6.74875e-29
6.10741e-31
6.12598e-30
5.60849e-30
6.35274e-30
5.51544e-31
6.80506e-29
4.75352e-28
1.0227e-27
5.66661e-29
1.88248e-28
4.53427e-28
1.70093e-27
4.7609e-28
1.88977e-28
5.5606e-29
2.86324e-27
1.10829e-27
3.3551e-28
9.62796e-26
5.20043e-25
2.77923e-25
5.19173e-25
9.74463e-26
3.33784e-28
6.27721e-28
2.98064e-29
9.92673e-28
2.98863e-26
2.22318e-25
1.35215e-25
2.25704e-25
3.01745e-26
9.96567e-28
3.49619e-30
3.55132e-23
1.09166e-23
2.898e-26
1.67061e-28
4.90216e-30
1.51685e-28
3.13409e-26
1.1202e-23
3.602e-23
7.32771e-23
3.62259e-24
8.60266e-30
7.989e-30
3.41702e-33
1.08958e-29
1.35595e-29
3.7385e-24
7.36226e-23
1.26816e-23
2.44202e-28
1.74521e-30
8.08698e-34
3.22175e-34
2.42913e-33
2.74948e-30
3.38872e-28
1.26956e-23
1.66085e-27
6.48786e-29
4.55016e-32
1.43993e-34
1.39407e-33
8.46367e-35
6.24561e-32
7.4845e-29
1.73255e-27
5.24746e-28
3.74803e-30
2.97444e-34
5.99147e-33
2.21895e-33
4.66004e-33
2.34574e-34
3.76975e-30
5.10509e-28
4.42171e-29
1.18445e-29
3.14836e-31
1.70181e-31
2.50922e-31
1.78467e-31
2.80683e-31
1.17922e-29
3.91236e-29
2.36323e-30
4.80752e-30
1.26409e-30
1.39502e-29
9.67619e-29
1.50935e-29
1.25806e-30
4.73233e-30
6.63717e-30
1.42284e-30
8.47615e-30
1.27878e-28
9.4366e-27
5.13551e-27
9.80589e-27
1.30357e-28
8.58177e-30
4.99198e-31
2.03613e-31
5.33519e-29
1.19655e-28
2.77617e-28
1.41651e-28
2.92695e-28
1.20974e-28
5.38271e-29
3.39172e-31
1.7333e-23
4.96488e-25
4.41045e-30
9.22113e-30
8.62005e-33
1.15134e-29
4.77073e-30
5.11495e-25
1.72016e-23
3.08448e-24
3.2473e-28
1.1049e-30
6.16218e-33
4.63116e-34
4.1941e-32
2.31548e-30
4.50971e-28
3.05172e-24
1.08851e-28
2.78616e-29
1.64385e-31
1.7203e-36
7.22605e-35
1.53504e-36
3.46436e-31
4.75448e-29
1.30187e-28
2.79131e-28
1.2059e-29
1.96061e-33
2.85395e-36
1.34651e-35
1.35992e-36
2.31771e-33
1.32044e-29
2.97299e-28
1.74541e-28
1.26742e-30
6.15126e-36
8.57919e-35
2.58325e-36
6.08082e-35
7.49338e-36
1.31403e-30
1.60754e-28
2.89815e-29
3.00041e-30
8.4345e-33
2.1731e-33
3.74475e-33
2.2986e-33
7.98019e-33
2.94211e-30
2.48603e-29
9.29456e-31
6.36898e-32
2.18094e-31
5.34502e-31
5.42547e-30
5.91723e-31
2.1708e-31
6.30611e-32
9.1024e-31
7.74098e-32
2.52732e-31
1.78235e-30
1.05383e-30
2.0063e-30
1.15825e-30
1.80489e-30
2.59414e-31
3.51453e-32
3.50325e-48
1.14459e-30
1.22815e-29
1.96492e-32
1.25561e-31
1.17068e-32
1.24497e-29
1.16096e-30
0
5.59458e-25
2.87562e-28
5.01915e-31
2.72216e-33
2.47941e-34
3.23342e-32
6.89519e-31
3.31878e-28
5.28174e-25
6.5918e-28
4.02332e-29
2.29262e-32
1.19501e-37
1.23559e-34
1.59868e-37
6.38143e-32
6.45051e-29
9.29462e-28
1.20043e-29
6.28182e-31
4.95893e-35
1.49407e-37
4.99944e-37
1.6424e-37
6.05702e-35
1.20356e-30
1.82322e-29
1.79777e-29
3.02653e-31
9.59698e-35
4.08548e-38
1.157e-40
3.90287e-38
1.31887e-34
3.17212e-31
1.82751e-29
2.55635e-29
1.75524e-31
2.56866e-37
5.63662e-38
1.65009e-37
4.65085e-36
3.5105e-37
1.99416e-31
2.41094e-29
1.01559e-29
1.83319e-33
6.24591e-35
7.02459e-36
1.90114e-35
9.02023e-36
1.24858e-34
1.97786e-33
1.0176e-29
2.44606e-31
5.22463e-33
6.18879e-32
1.01747e-32