/*--------------------------------*- C++ -*----------------------------------*\
  =========                 |
  \\      /  F ield         | OpenFOAM: The Open Source CFD Toolbox
   \\    /   O peration     | Website:  https://openfoam.org
    \\  /    A nd           | Version:  8
     \\/     M anipulation  |
\*---------------------------------------------------------------------------*/
FoamFile
{
    version     2.0;
    format      ascii;
    class       volScalarField;
    location    "0.04";
    object      alpha.oil;
}
// * * * * * * * * * * * * * * * * * * * * * * * * * * * * * * * * * * * * * //

dimensions      [0 0 0 0 0 0 0];

internalField   nonuniform List<scalar> 
180000
(
6.63575e-18
5.02093e-19
4.16172e-22
1.2582e-24
4.765e-28
1.25426e-24
4.21776e-22
5.00016e-19
6.60069e-18
0
0
9.26464e-22
0
0
4.17045e-41
7.46401e-22
1.26521e-20
3.11413e-20
0.0014909
0.000536696
0.000159295
5.14121e-05
1.86961e-05
5.1415e-05
0.000159333
0.000536696
0.00149099
0.478276
0.478475
0.478655
0.478731
0.478753
0.478731
0.478655
0.478475
0.478276
0.484
0.483983
0.483973
0.483975
0.483974
0.483975
0.483973
0.483983
0.484
0.484
0.484
0.483998
0.483991
0.483988
0.483991
0.483998
0.484
0.484
0.483926
0.48393
0.48392
0.483917
0.483916
0.483917
0.48392
0.483931
0.483927
0.483792
0.483814
0.483818
0.483822
0.483822
0.483822
0.483819
0.483814
0.483793
0.483796
0.483835
0.483817
0.48381
0.4838
0.48381
0.483817
0.483838
0.483796
6.10356e-12
1.45772e-13
3.2513e-15
1.35372e-18
1.01061e-22
1.35171e-18
3.24697e-15
1.45688e-13
6.1083e-12
7.14016e-30
0
0
0
3.15312e-22
0
0
5.04152e-30
0
0.000771424
7.61226e-05
8.67362e-21
0
0
0
4.33681e-21
7.6075e-05
0.00077093
0.444057
0.444576
0.444906
0.445121
0.445203
0.445121
0.444906
0.444576
0.444057
0.475441
0.475291
0.475314
0.475352
0.475365
0.475352
0.475314
0.475291
0.475441
0.478427
0.478312
0.478329
0.478335
0.478338
0.478335
0.478329
0.478312
0.478427
0.478577
0.478462
0.478466
0.478473
0.478475
0.478473
0.478466
0.478461
0.478577
0.478525
0.478381
0.478359
0.478377
0.478374
0.478377
0.478358
0.47838
0.478525
0.478327
0.478259
0.47815
0.478148
0.478145
0.478148
0.478151
0.478264
0.47833
9.84697e-12
1.65925e-12
2.17942e-14
8.98809e-13
8.78738e-15
8.97315e-13
2.17088e-14
1.65823e-12
9.85726e-12
0
6.79686e-15
2.08168e-16
7.88427e-15
1.44011e-16
7.86729e-15
2.07507e-16
6.82576e-15
0
6.72205e-20
5.55296e-21
0
2.96836e-22
0
1.38335e-45
0
0
4.98733e-20
0.358045
0.359013
0.360104
0.360885
0.36118
0.360885
0.360104
0.359013
0.358045
0.428715
0.42855
0.428545
0.428623
0.428651
0.428623
0.428545
0.428549
0.428715
0.436586
0.436488
0.436489
0.436436
0.436424
0.436436
0.436489
0.436487
0.436585
0.437713
0.437359
0.4373
0.43727
0.437261
0.43727
0.4373
0.437358
0.437712
0.438131
0.437737
0.437581
0.437575
0.437569
0.437575
0.437581
0.437736
0.438131
0.438297
0.43797
0.43779
0.437715
0.43766
0.437714
0.437791
0.437969
0.438299
8.70202e-12
1.89596e-12
2.19803e-13
8.64394e-12
6.12308e-14
8.6343e-12
2.1894e-13
1.88598e-12
8.71389e-12
1.55276e-13
1.06343e-13
3.90893e-14
5.45426e-14
1.52713e-16
5.44604e-14
3.90482e-14
1.06039e-13
1.55752e-13
6.88299e-22
7.46592e-32
3.05922e-32
0
8.47418e-36
2.25155e-33
0
0
1.18379e-31
0.211804
0.213854
0.215974
0.217337
0.217819
0.217337
0.215975
0.213854
0.211804
0.311022
0.310966
0.311065
0.31126
0.311327
0.31126
0.311065
0.310965
0.311022
0.325231
0.325074
0.324817
0.324671
0.324647
0.324671
0.324817
0.325074
0.325231
0.326987
0.32661
0.326378
0.326267
0.326238
0.326267
0.326378
0.326611
0.326986
0.327903
0.32746
0.327126
0.327045
0.327012
0.327045
0.327127
0.327459
0.327904
0.329048
0.32864
0.32841
0.328329
0.328314
0.328329
0.328411
0.328636
0.329046
5.99515e-12
1.81967e-12
5.39771e-13
2.47133e-11
1.16578e-13
2.46773e-11
5.412e-13
1.81521e-12
6.0045e-12
6.37027e-13
4.21213e-13
6.60994e-14
1.10226e-13
9.901e-16
1.10069e-13
6.62555e-14
4.20443e-13
6.38418e-13
0
0
1.03705e-32
7.73143e-33
0
0
0
0
0
0.0809544
0.0830579
0.0851071
0.0863854
0.0868176
0.0863853
0.0851065
0.0830581
0.0809552
0.164021
0.164842
0.165574
0.166124
0.166306
0.166124
0.165574
0.164841
0.164021
0.185928
0.185875
0.185684
0.185576
0.185562
0.185575
0.185683
0.185875
0.185928
0.188981
0.188796
0.188534
0.188404
0.18837
0.188405
0.188535
0.188796
0.18898
0.190287
0.190047
0.189785
0.189713
0.189685
0.189715
0.189785
0.190047
0.190288
0.1917
0.19154
0.191412
0.191351
0.191326
0.191348
0.191412
0.191538
0.1917
5.22417e-12
3.06583e-12
1.40369e-11
4.0045e-11
2.15884e-13
3.99981e-11
1.40371e-11
3.071e-12
5.23208e-12
9.66282e-13
4.42855e-13
1.80739e-13
2.40308e-13
5.00966e-15
2.40052e-13
1.81115e-13
4.43362e-13
9.65388e-13
0
3.90055e-19
0
3.7476e-19
5.27411e-19
0
0
7.06031e-20
4.06533e-19
0.019092
0.0201418
0.0211219
0.0217256
0.0219274
0.0217256
0.0211219
0.0201415
0.0190924
0.0581765
0.0593327
0.0602845
0.0608951
0.0610928
0.0608948
0.0602851
0.0593323
0.0581757
0.078804
0.0790858
0.0792215
0.0793013
0.0793351
0.0793003
0.0792213
0.0790866
0.0788051
0.0835149
0.0835527
0.0834482
0.083398
0.0833902
0.0833995
0.0834491
0.0835537
0.0835152
0.085058
0.0850238
0.0849182
0.0848968
0.0848913
0.0848987
0.0849187
0.0850239
0.0850577
0.0863948
0.0864107
0.0863885
0.0863664
0.0863457
0.0863671
0.0863881
0.0864094
0.0863934
1.34551e-11
2.31551e-11
1.54221e-10
6.61044e-11
3.02977e-13
6.60594e-11
1.54194e-10
2.31435e-11
1.33507e-11
4.29391e-12
6.19751e-13
1.21765e-12
1.10256e-12
9.0823e-15
1.10263e-12
1.21823e-12
6.17914e-13
4.24547e-12
0
1.56782e-19
1.26352e-19
0
3.54554e-20
0
0
0
0
0.0023917
0.00262031
0.00284133
0.0029785
0.00302434
0.00297846
0.00284133
0.00262026
0.00239183
0.0115455
0.0121022
0.0125661
0.0128543
0.012948
0.012854
0.0125662
0.0121022
0.0115454
0.020963
0.0213237
0.0215657
0.0217077
0.0217555
0.0217072
0.0215658
0.0213241
0.0209634
0.0248373
0.0249663
0.0249907
0.0250087
0.0250183
0.0250098
0.0249913
0.0249669
0.0248378
0.0261107
0.0261627
0.0261452
0.0261464
0.0261489
0.0261475
0.0261453
0.0261624
0.02611
0.0269407
0.026991
0.0270042
0.0270088
0.0270062
0.0270101
0.0270042
0.0269904
0.0269396
1.82427e-10
9.98399e-11
5.2283e-10
7.23979e-11
2.26577e-13
7.23354e-11
5.22666e-10
9.98248e-11
1.81442e-10
2.84304e-11
1.62554e-12
4.51283e-12
3.33533e-12
9.17614e-15
3.33361e-12
4.51203e-12
1.62436e-12
2.82059e-11
0
3.77514e-21
5.45803e-21
1.43237e-21
2.97632e-21
0
5.97362e-21
0
7.75565e-22
0.000122952
0.000141783
0.000161421
0.000173991
0.000178232
0.000173982
0.00016142
0.000141784
0.000122966
0.00102016
0.00111752
0.00120158
0.00125403
0.00127135
0.00125394
0.00120155
0.00111757
0.00102019
0.0027988
0.00293239
0.0030285
0.00308492
0.00310345
0.00308478
0.00302852
0.00293251
0.00279895
0.00412904
0.00420889
0.00424693
0.00426946
0.0042774
0.00426983
0.0042471
0.00420911
0.0041292
0.00469502
0.00473649
0.00474493
0.00475153
0.00475465
0.00475187
0.004745
0.00473634
0.0046942
0.00499236
0.00502239
0.00503409
0.00503903
0.00504045
0.00503891
0.0050343
0.00502135
0.00499185
3.10377e-10
3.18192e-10
7.80724e-10
5.19822e-11
6.54029e-14
5.1936e-11
7.80473e-10
3.18701e-10
3.09155e-10
3.42415e-11
4.3723e-12
1.33509e-11
3.19014e-12
3.12891e-15
3.18827e-12
1.33411e-11
4.36807e-12
3.40737e-11
6.22281e-23
0
0
1.27113e-22
1.53278e-22
4.81267e-23
0
0
0
2.2103e-06
2.71848e-06
3.2936e-06
3.67969e-06
3.81215e-06
3.67928e-06
3.29357e-06
2.71864e-06
2.21078e-06
3.35495e-05
3.89659e-05
4.38709e-05
4.69908e-05
4.80447e-05
4.69833e-05
4.38671e-05
3.89687e-05
3.3553e-05
0.000151064
0.000165717
0.0001768
0.00018343
0.000185619
0.000183413
0.0001768
0.000165722
0.000151077
0.000307404
0.000322162
0.000330674
0.000335599
0.000337228
0.000335628
0.000330696
0.000322189
0.000307394
0.000405099
0.000414882
0.000418243
0.000420228
0.000421006
0.00042029
0.000418262
0.000414866
0.00040504
0.000456373
0.000462987
0.000464844
0.000466387
0.000466883
0.000466517
0.000464832
0.000462958
0.000456309
4.26447e-10
6.17043e-10
9.0562e-10
2.50603e-11
9.566e-15
2.50428e-11
9.05823e-10
6.18119e-10
4.25491e-10
3.50629e-11
9.5151e-12
2.53799e-11
1.63596e-12
2.19244e-15
1.63481e-12
2.5409e-11
9.53715e-12
3.49782e-11
5.8865e-10
4.17325e-10
3.93641e-10
4.4695e-10
4.58917e-10
4.46893e-10
3.93761e-10
4.17287e-10
5.91175e-10
1.31638e-08
1.67411e-08
2.12115e-08
2.45006e-08
2.56879e-08
2.44992e-08
2.12121e-08
1.67424e-08
1.31724e-08
3.19603e-07
3.95606e-07
4.67938e-07
5.1548e-07
5.31937e-07
5.15394e-07
4.679e-07
3.95623e-07
3.19647e-07
2.3668e-06
2.74992e-06
3.05334e-06
3.24093e-06
3.30371e-06
3.2405e-06
3.05327e-06
2.74996e-06
2.36714e-06
7.10472e-06
7.75064e-06
8.15341e-06
8.38822e-06
8.4649e-06
8.38922e-06
8.15413e-06
7.7518e-06
7.1047e-06
1.15633e-05
1.21146e-05
1.23315e-05
1.24573e-05
1.25033e-05
1.24613e-05
1.23324e-05
1.21157e-05
1.15596e-05
1.42602e-05
1.46192e-05
1.47262e-05
1.48204e-05
1.48533e-05
1.48232e-05
1.4727e-05
1.46178e-05
1.42607e-05
7.77318e-10
9.41048e-10
5.95616e-10
6.69392e-12
1.46093e-15
6.68753e-12
5.95831e-10
9.43117e-10
7.77573e-10
4.41178e-11
2.50993e-11
2.84409e-11
1.81976e-13
0
1.88454e-13
2.8507e-11
2.51927e-11
4.40835e-11
8.23808e-10
6.59548e-10
6.53153e-10
7.46528e-10
8.22573e-10
7.46545e-10
6.53269e-10
6.5948e-10
8.27919e-10
6.1472e-10
5.90863e-10
5.97766e-10
6.87346e-10
7.38488e-10
6.87518e-10
5.97831e-10
5.90798e-10
6.15792e-10
8.02997e-10
1.03693e-09
1.21575e-09
1.37297e-09
1.43137e-09
1.37301e-09
1.21583e-09
1.0369e-09
8.02962e-10
7.43049e-09
9.19705e-09
1.064e-08
1.15697e-08
1.18836e-08
1.15678e-08
1.06392e-08
9.19727e-09
7.43182e-09
3.35667e-08
3.82573e-08
4.13213e-08
4.31292e-08
4.37151e-08
4.31344e-08
4.13226e-08
3.82693e-08
3.35684e-08
6.91113e-08
7.4026e-08
7.61563e-08
7.73391e-08
7.77699e-08
7.73616e-08
7.61689e-08
7.40325e-08
6.90885e-08
9.38525e-08
9.71547e-08
9.81847e-08
9.91025e-08
9.94627e-08
9.9099e-08
9.82017e-08
9.71191e-08
9.38887e-08
1.42629e-09
1.39486e-09
1.53957e-10
8.77317e-13
1.12611e-16
8.79732e-13
1.54061e-10
1.39789e-09
1.4285e-09
7.20957e-11
4.88612e-11
1.59165e-11
2.51954e-26
1.25378e-26
0
1.59598e-11
4.89711e-11
7.213e-11
5.48682e-10
4.00119e-10
4.41943e-10
5.42481e-10
6.21909e-10
5.42756e-10
4.41963e-10
4.00109e-10
5.51578e-10
2.85186e-10
2.6632e-10
2.69536e-10
3.31583e-10
3.59072e-10
3.31752e-10
2.69555e-10
2.66326e-10
2.86019e-10
8.38929e-11
9.2685e-11
8.74068e-11
9.94907e-11
1.05724e-10
9.9541e-11
8.74233e-11
9.268e-11
8.3925e-11
1.06225e-11
1.22638e-11
1.20821e-11
1.3133e-11
1.35665e-11
1.31359e-11
1.20834e-11
1.22639e-11
1.06058e-11
2.40337e-11
2.80453e-11
3.06445e-11
3.23119e-11
3.28417e-11
3.23101e-11
3.06429e-11
2.80558e-11
2.40365e-11
5.67612e-11
6.17384e-11
6.40999e-11
6.53424e-11
6.58097e-11
6.53547e-11
6.41225e-11
6.17268e-11
5.67731e-11
8.30712e-11
8.68905e-11
8.76379e-11
8.87999e-11
8.92689e-11
8.88986e-11
8.76345e-11
8.68931e-11
8.30625e-11
2.14111e-09
9.89602e-10
2.18585e-11
4.94682e-14
2.12838e-18
4.96161e-14
2.18677e-11
9.90035e-10
2.14441e-09
1.2834e-10
3.75509e-11
6.32338e-12
2.44354e-27
1.21118e-26
1.00317e-26
6.33375e-12
3.76145e-11
1.28439e-10
1.79812e-10
1.32817e-10
1.40404e-10
1.99902e-10
2.20096e-10
2.00037e-10
1.40402e-10
1.32832e-10
1.80429e-10
1.34581e-10
1.22045e-10
1.25541e-10
1.65527e-10
1.81414e-10
1.6564e-10
1.2556e-10
1.22059e-10
1.34976e-10
3.76528e-11
4.00113e-11
3.95806e-11
4.94391e-11
5.44843e-11
4.94791e-11
3.95892e-11
4.00104e-11
3.76776e-11
3.0965e-12
3.02247e-12
2.69278e-12
3.05109e-12
3.14098e-12
3.05368e-12
2.69328e-12
3.02216e-12
3.09189e-12
6.6467e-14
4.55165e-14
3.62454e-14
3.46199e-14
3.32411e-14
3.46378e-14
3.6255e-14
4.55087e-14
6.63389e-14
4.38979e-15
4.75887e-15
4.93457e-15
5.03176e-15
5.06979e-15
5.03632e-15
4.93607e-15
4.75767e-15
4.38826e-15
6.41288e-15
6.73387e-15
6.7777e-15
6.87647e-15
6.91906e-15
6.88995e-15
6.77799e-15
6.73827e-15
6.41211e-15
1.78675e-09
2.14296e-10
2.28675e-12
8.34703e-16
3.592e-20
8.32565e-16
2.28119e-12
2.14151e-10
1.7882e-09
1.68472e-10
2.70664e-11
8.41896e-13
3.5112e-27
0
1.29584e-27
8.41799e-13
2.71296e-11
1.68612e-10
6.15388e-11
3.91869e-11
3.64562e-11
5.5775e-11
6.46383e-11
5.58212e-11
3.64645e-11
3.92007e-11
6.163e-11
4.0408e-11
3.70084e-11
3.94289e-11
5.88487e-11
6.8683e-11
5.8902e-11
3.94384e-11
3.70123e-11
4.04732e-11
1.23746e-11
1.31958e-11
1.41411e-11
1.99453e-11
2.20008e-11
1.99672e-11
1.41447e-11
1.31955e-11
1.23779e-11
1.61879e-12
1.55561e-12
1.47832e-12
1.72141e-12
1.77918e-12
1.72299e-12
1.47888e-12
1.55565e-12
1.6187e-12
3.86081e-14
2.59811e-14
2.41198e-14
2.48136e-14
2.40628e-14
2.48387e-14
2.41318e-14
2.59771e-14
3.86416e-14
1.41524e-31
0
0
0
2.83832e-32
5.92619e-32
3.19482e-32
0
2.47905e-32
2.43635e-19
2.61244e-19
2.60348e-19
2.68379e-19
2.63652e-19
2.68473e-19
2.60402e-19
2.61318e-19
2.43868e-19
5.70232e-10
3.50583e-11
1.39475e-13
1.91904e-17
1.19376e-21
1.9119e-17
1.39073e-13
3.50571e-11
5.70223e-10
1.32745e-10
1.61881e-11
1.74994e-14
0
0
3.18983e-28
1.74007e-14
1.62042e-11
1.32896e-10
2.05034e-11
5.4065e-12
4.62196e-12
8.6691e-12
1.14265e-11
8.68017e-12
4.62444e-12
5.40825e-12
2.05116e-11
5.51914e-12
4.48835e-12
5.26674e-12
9.72874e-12
1.18636e-11
9.7421e-12
5.26841e-12
4.48874e-12
5.51593e-12
2.55641e-12
2.77462e-12
3.15228e-12
5.03251e-12
5.80353e-12
5.03848e-12
3.15341e-12
2.77501e-12
2.55744e-12
5.18837e-13
5.28701e-13
5.94627e-13
8.18144e-13
8.83034e-13
8.19113e-13
5.94908e-13
5.28718e-13
5.19818e-13
1.19945e-14
7.53655e-15
9.54849e-15
1.19142e-14
1.20811e-14
1.19356e-14
9.55448e-15
7.53473e-15
1.2015e-14
6.67464e-18
4.63455e-19
2.45582e-18
6.16298e-35
0
0
2.45984e-18
4.6044e-19
6.72814e-18
0
8.28277e-37
0
0
2.04719e-36
1.29215e-36
0
0
0
8.28873e-11
4.58876e-12
3.99458e-15
1.43981e-18
4.24039e-23
1.44118e-18
3.99798e-15
4.5889e-12
8.28789e-11
6.40419e-11
1.5278e-12
6.08169e-16
0
0
0
6.09233e-16
1.52796e-12
6.41113e-11
7.79189e-12
1.92545e-13
1.22685e-13
3.52145e-13
4.94714e-13
3.52823e-13
1.22754e-13
1.92684e-13
7.79839e-12
4.64937e-13
2.13629e-13
2.65746e-13
6.46434e-13
8.49961e-13
6.47482e-13
2.65904e-13
2.13706e-13
4.64349e-13
1.88489e-13
2.01817e-13
2.70701e-13
5.84905e-13
7.32193e-13
5.85805e-13
2.70844e-13
2.01859e-13
1.8869e-13
3.45108e-14
3.46187e-14
5.70751e-14
1.10852e-13
1.30298e-13
1.11076e-13
5.7112e-14
3.46192e-14
3.45774e-14
1.84324e-15
1.39062e-15
2.42694e-15
2.62956e-15
2.47858e-15
2.63451e-15
2.42931e-15
1.39058e-15
1.85186e-15
1.03317e-17
5.86069e-18
1.66853e-17
7.65755e-18
4.71529e-18
7.66586e-18
1.67126e-17
5.85662e-18
1.04625e-17
1.17549e-40
0
0
0
0
1.18625e-39
0
1.17712e-41
0
5.80268e-12
1.48502e-13
1.97387e-16
7.57074e-20
1.71427e-24
7.57413e-20
1.98337e-16
1.48566e-13
5.79918e-12
8.20271e-12
9.32455e-14
9.6476e-17
0
0
0
9.70814e-17
9.33978e-14
8.20321e-12
1.49035e-12
1.14683e-14
1.16415e-15
5.13076e-15
8.72963e-15
5.13809e-15
1.16552e-15
1.15001e-14
1.49194e-12
5.99398e-14
2.47721e-15
3.42578e-15
1.38603e-14
2.11366e-14
1.38883e-14
3.42928e-15
2.47897e-15
6.00453e-14
1.80654e-15
1.39244e-15
2.91989e-15
1.14953e-14
1.68746e-14
1.15241e-14
2.92257e-15
1.39282e-15
1.80594e-15
5.04539e-16
5.72304e-16
1.39153e-15
3.25851e-15
3.88907e-15
3.26643e-15
1.39312e-15
5.7244e-16
5.06244e-16
8.40133e-17
1.14221e-16
3.93006e-16
4.34505e-16
3.84243e-16
4.3531e-16
3.93624e-16
1.14201e-16
8.49305e-17
4.67975e-19
6.30002e-19
5.4071e-18
3.51197e-18
2.25045e-18
3.51958e-18
5.41868e-18
6.29119e-19
4.76351e-19
5.29184e-24
5.08479e-23
0
0
0
0
0
5.12613e-23
5.34975e-24
4.8817e-14
2.06335e-15
2.22974e-17
4.34042e-21
3.97375e-25
4.3938e-21
2.24171e-17
2.06316e-15
4.87007e-14
1.55167e-13
8.21715e-15
7.60601e-18
0
5.44556e-38
0
7.63211e-18
8.2342e-15
1.5525e-13
1.05915e-13
8.63672e-16
3.53232e-18
2.88513e-17
6.13101e-17
2.8892e-17
3.54039e-18
8.67849e-16
1.06141e-13
5.84628e-15
1.92742e-18
2.65262e-18
3.18517e-17
6.61782e-17
3.19542e-17
2.65655e-18
1.93182e-18
5.87303e-15
5.00659e-18
1.11667e-18
3.38657e-18
2.58462e-17
4.57309e-17
2.59299e-17
3.39212e-18
1.11744e-18
5.02079e-18
1.28438e-18
2.31012e-18
1.04414e-17
3.26582e-17
4.1219e-17
3.27416e-17
1.04599e-17
2.31045e-18
1.29487e-18
9.69984e-20
3.00277e-19
4.70114e-18
8.62904e-18
7.75625e-18
8.65587e-18
4.71273e-18
2.99962e-19
9.85086e-20
5.8509e-24
2.12841e-21
1.55415e-20
1.34815e-35
0
0
1.55829e-20
2.14037e-21
5.86081e-24
7.97068e-24
1.07178e-21
1.22682e-20
0
0
0
1.22936e-20
1.07797e-21
8.03806e-24
3.57237e-17
3.34208e-17
5.75498e-19
1.04563e-21
3.18646e-25
1.05816e-21
5.79027e-19
3.34073e-17
3.56224e-17
1.28761e-15
1.29532e-16
1.52219e-19
2.38182e-22
4.45286e-43
2.30279e-22
1.54333e-19
1.29887e-16
1.29053e-15
1.33431e-15
3.59347e-18
4.79326e-20
6.00009e-21
2.12974e-20
6.01395e-21
4.57821e-20
3.60695e-18
1.33987e-15
2.16306e-17
1.8725e-19
1.13689e-21
4.55353e-21
1.63297e-20
4.56909e-21
1.02769e-21
1.8548e-19
2.17974e-17
9.10345e-20
2.35752e-21
9.28927e-22
1.46348e-20
3.24714e-20
1.46803e-20
9.29928e-22
2.32318e-21
9.14905e-20
1.79947e-22
1.80683e-22
3.35189e-21
2.26466e-20
3.49495e-20
2.27396e-20
3.36048e-21
1.80532e-22
1.75153e-22
7.64327e-24
1.78691e-22
4.83749e-21
1.49478e-20
7.8135e-21
1.48824e-20
4.84657e-21
1.81686e-22
7.62914e-24
8.04307e-24
1.45064e-21
3.13915e-20
4.96265e-20
2.50441e-20
4.95114e-20
3.1466e-20
1.46133e-21
8.05522e-24
8.57258e-24
4.77221e-22
1.69907e-20
2.81125e-20
1.38764e-20
2.81121e-20
1.70305e-20
4.80521e-22
8.66493e-24
7.57869e-20
4.85152e-20
1.70305e-20
7.57077e-22
1.99263e-25
7.55702e-22
1.69697e-20
4.85043e-20
7.59389e-20
2.49744e-18
3.4969e-20
4.797e-20
5.15151e-22
3.85564e-27
4.86616e-22
4.60395e-20
3.48343e-20
2.50463e-18
3.15311e-19
7.88047e-20
1.00607e-20
3.1507e-24
2.17361e-24
2.62433e-24
9.09207e-21
7.77725e-20
3.17569e-19
3.07363e-20
2.3757e-20
4.58619e-23
5.59213e-25
2.42757e-24
5.61094e-25
3.63109e-23
2.33707e-20
3.09199e-20
5.31315e-21
4.4537e-23
8.8243e-26
7.68564e-25
2.29663e-24
7.71506e-25
8.89944e-26
4.38786e-23
5.34625e-21
6.5576e-23
4.94147e-25
6.37745e-26
4.53252e-25
3.63924e-25
4.78704e-25
6.11097e-26
4.89749e-25
5.75429e-23
2.32696e-24
2.7436e-23
2.05213e-21
4.9863e-21
3.05491e-21
4.96322e-21
2.05632e-21
2.79369e-23
1.70533e-24
5.06033e-24
9.68564e-23
1.32147e-20
3.77379e-20
2.02158e-20
3.7729e-20
1.32465e-20
9.79202e-23
5.02598e-24
4.23789e-24
9.03689e-23
1.67362e-21
1.02538e-20
5.01957e-21
1.02606e-20
1.67716e-21
9.08034e-23
4.28153e-24
8.64668e-20
1.34937e-22
1.05724e-21
9.60357e-23
3.33047e-27
9.45988e-23
1.05391e-21
1.2798e-22
8.65537e-20
1.06629e-22
2.69663e-22
4.40384e-21
2.70068e-23
3.89914e-28
2.27162e-23
3.9195e-21
2.63562e-22
1.05287e-22
1.15922e-23
1.22856e-21
1.7732e-22
2.42823e-26
8.13586e-28
2.30445e-26
1.41212e-22
1.20266e-21
1.16105e-23
6.48574e-23
4.53889e-23
2.91306e-25
1.92206e-27
3.28345e-28
1.77705e-27
2.77229e-25
4.44746e-23
6.53427e-23
4.17193e-23
5.24447e-24
3.31243e-26
1.6966e-29
4.88099e-29
1.58322e-29
3.2162e-26
5.19719e-24
4.13494e-23
1.86877e-23
1.49831e-24
3.30058e-27
1.35175e-25
5.84062e-26
1.37885e-25
1.37815e-27
1.4837e-24
1.53619e-23
4.54163e-25
5.23732e-24
2.74198e-22
6.1314e-22
3.74195e-22
6.09811e-22
2.7474e-22
5.28339e-24
3.91906e-25
6.06761e-25
2.68756e-23
1.16392e-22
1.05109e-21
5.9961e-22
1.05153e-21
1.16371e-22
2.7263e-23
6.0692e-25
4.81979e-25
4.00003e-23
1.87049e-22
1.74178e-22
1.08148e-22
1.724e-22
1.87048e-22
4.04037e-23
4.86201e-25
1.08701e-21
3.62932e-23
3.45968e-24
1.10789e-26
1.35531e-28
9.53999e-27
3.42613e-24
3.59842e-23
1.07829e-21
1.39582e-22
1.54146e-24
1.6248e-24
7.44116e-27
2.99546e-28
6.90621e-27
1.28702e-24
1.5033e-24
1.38672e-22
6.16488e-25
9.20808e-26
2.97123e-26
5.30277e-27
9.00907e-30
4.69632e-27
2.72439e-26
9.07856e-26
6.17381e-25
5.36447e-26
4.11426e-25
4.95431e-26
3.14391e-28
6.52439e-32
2.51004e-28
4.56422e-26
4.06708e-25
5.36694e-26
1.33492e-24
2.03371e-24
4.7193e-27
2.84056e-31
9.88364e-33
2.0978e-31
4.16e-27
2.01091e-24
1.31385e-24
7.36159e-24
7.62398e-25
2.36189e-28
3.38016e-26
1.11048e-26
3.36796e-26
2.98551e-29
7.5459e-25
7.40663e-24
1.50399e-25
2.8414e-24
4.16209e-23
3.47447e-24
1.31369e-24
3.383e-24
4.16725e-23
2.84843e-24
3.16709e-25
2.6296e-26
8.96194e-24
8.95573e-23
6.92259e-23
4.94142e-23
6.8298e-23
8.97091e-23
9.08232e-24
2.87932e-26
1.07911e-26
4.03776e-24
1.12461e-22
9.86026e-23
6.45416e-23
9.75755e-23
1.12545e-22
4.12027e-24
1.07794e-26
5.45712e-22
4.96811e-24
4.63598e-27
2.30333e-28
6.18325e-30
1.19902e-28
3.87324e-27
4.99438e-24
5.50702e-22
1.72538e-23
7.23376e-26
2.34319e-27
1.85985e-27
1.79146e-29
1.62984e-27
2.18838e-27
6.8447e-26
1.78447e-23
2.0047e-25
1.0371e-26
1.56132e-27
6.52629e-28
6.91651e-31
5.24203e-28
1.32081e-27
1.17687e-26
1.99712e-25
2.40719e-26
2.06319e-26
1.07917e-27
1.19849e-29
3.94133e-33
8.97595e-30
9.15277e-28
2.0374e-26
2.40112e-26
6.4393e-26
1.53311e-25
1.80391e-30
9.31576e-33
1.38888e-34
7.70133e-33
1.55005e-30
1.51184e-25
6.39128e-26
1.37776e-24
1.57611e-26
6.04812e-29
5.56295e-27
1.79259e-27
5.60326e-27
4.951e-29
1.56441e-26
1.63357e-24
4.8975e-26
4.31185e-25
7.34935e-24
1.74864e-24
1.11438e-24
1.73338e-24
7.36675e-24
4.30888e-25
8.87003e-26
1.01277e-27
2.16961e-25
3.52942e-23
1.70984e-23
1.25823e-23
1.68611e-23
3.53968e-23
2.18366e-25
4.76185e-28
8.66689e-29
1.22338e-27
3.11089e-24
9.09859e-24
5.93348e-24
9.03277e-24
3.12391e-24
1.24945e-27
8.44388e-29
7.28663e-23
6.27887e-26
1.09489e-27
7.21136e-31
3.40844e-31
8.14987e-31
1.03126e-27
5.65794e-26
7.72815e-23
3.74154e-25
3.05061e-26
2.40209e-28
1.08033e-28
3.56537e-31
8.40679e-29
2.51336e-28
3.36688e-26
3.73486e-25
1.68105e-25
4.65078e-27
9.91643e-30
8.47102e-30
1.16852e-31
6.04485e-30
7.18331e-30
5.53649e-27
1.67245e-25
1.62279e-26
6.29331e-29
3.98273e-32
1.24126e-31
7.09704e-34
1.04294e-31
3.12707e-32
6.14803e-29
1.62091e-26
9.84135e-28
2.7524e-29
1.16818e-34
0
2.07082e-35
1.40594e-33
8.57639e-35
2.71406e-29
9.81548e-28
7.8465e-27
7.78461e-33
5.06221e-30
1.29958e-27
5.18834e-28
1.32522e-27
5.56466e-30
8.30102e-33
7.42023e-27
1.55522e-27
5.68705e-28
9.66645e-26
2.79801e-25
3.57953e-25
2.83092e-25
9.7237e-26
5.69656e-28
9.71085e-28
8.7214e-30
1.5172e-28
8.42116e-26
4.11196e-26
3.07351e-26
4.05066e-26
8.48286e-26
1.51918e-28
8.70732e-30
5.15548e-30
1.43976e-28
1.58195e-28
1.20319e-28
8.84419e-29
1.17157e-28
1.57538e-28
1.43759e-28
5.162e-30
6.51762e-26
5.45374e-27
1.03949e-28
1.34586e-32
1.71494e-37
1.52168e-32
1.13962e-28
5.90424e-27
6.49293e-26
1.4014e-25
5.88715e-27
3.96782e-30
2.55512e-32
1.69082e-32
1.60612e-32
4.308e-30
7.01554e-27
1.39584e-25
6.89001e-26
3.56277e-28
2.37724e-32
6.12264e-33
2.21054e-33
4.58284e-33
2.33296e-32
3.44088e-28
6.8753e-26
2.66814e-27
2.34189e-30
4.91777e-34
3.89397e-36
5.54822e-37
5.57913e-36
5.10883e-34
2.30195e-30
2.67766e-27
1.58455e-28
5.07853e-32
4.33578e-35
3.85945e-34
1.67823e-35
2.92105e-33
2.55895e-35
5.13468e-32
1.60024e-28
1.06022e-29
6.99279e-35
3.03569e-31
1.67656e-28
7.76683e-29
1.71807e-28
3.08497e-31
5.43769e-35
1.08886e-29
2.78089e-30
4.2282e-29
3.12239e-29
1.1593e-28
9.46757e-29
1.14834e-28
3.12086e-29
4.23572e-29
2.74646e-30
1.40715e-30
6.97742e-29
7.79048e-29
6.60631e-29
4.50836e-29
6.14812e-29
7.75383e-29
6.98546e-29
1.49747e-30
4.58705e-32
2.29727e-29
8.68343e-29
5.79633e-29
4.43864e-29
5.57806e-29
8.67649e-29
2.29525e-29
4.63986e-32
2.12764e-26
4.25327e-28
6.48591e-31
3.15944e-35
3.74584e-40
3.10925e-35
8.86613e-31
5.11054e-28
2.12887e-26
2.43003e-26
1.72228e-28
2.89848e-32
1.99375e-35
2.9803e-35
2.01334e-35
2.88666e-32
1.67108e-28
2.42527e-26
4.11384e-27
1.01295e-29
1.44206e-33
6.78957e-37
1.01123e-39
7.33581e-37
1.48676e-33
1.00345e-29
4.10974e-27
2.05147e-28
1.73554e-31
9.93778e-35
3.17788e-39
1.04019e-56
2.30629e-54
1.04384e-34
1.72347e-31
2.05282e-28
2.68615e-29
1.82103e-32
1.43057e-35
2.24687e-34
1.89068e-35
1.47522e-33
9.22125e-36
1.8493e-32
2.71153e-29
6.9146e-30
2.91097e-34
9.81396e-32
4.34621e-30
2.16635e-30
4.46643e-30
1.00462e-31
2.26719e-34
6.85981e-30
1.20432e-30
1.55107e-29
2.44617e-29
2.63387e-29
1.94712e-29
2.40727e-29
2.43428e-29
1.54977e-29
1.15282e-30
1.45196e-32
1.06569e-29
3.68683e-29
1.83879e-29
1.48313e-29
1.63467e-29
3.67933e-29
1.06757e-29
1.41533e-32
9.11035e-34
1.28957e-31
1.66974e-29
8.04592e-30
7.11365e-30
7.67088e-30
1.67664e-29
1.29184e-31
0
1.92504e-27
1.05264e-29
4.36004e-33
2.81719e-37
6.449e-42
2.77458e-37
4.21588e-33
1.03406e-29
1.93555e-27
7.42928e-28
3.53144e-30
7.62119e-34
3.76144e-37
2.65727e-43
3.7063e-37
7.7502e-34
3.50532e-30
7.42572e-28
1.50332e-28
1.94732e-31
7.01667e-35
3.35878e-39
4.46571e-41
3.385e-39
7.37372e-35
1.96435e-31
1.49564e-28
6.1122e-30
3.54575e-33
3.61733e-35
4.79746e-38
7.92992e-57
3.5654e-38
3.75983e-35
3.49084e-33
6.08535e-30
3.12536e-30
1.91239e-33
3.52835e-36
5.24877e-36
2.5978e-35
7.75177e-35
3.72654e-36
1.94093e-33
3.15894e-30
3.23872e-30
9.01617e-35
8.88822e-33
2.38123e-31
2.06502e-31
2.37379e-31
9.31721e-33
8.89179e-35
3.11268e-30
3.1714e-31
6.3649e-31
1.26677e-29
4.20984e-30
4.17672e-30
3.54097e-30
1.26351e-29
6.3961e-31
2.9007e-31
7.11629e-34
3.56433e-32
5.0456e-30
8.49015e-31
9.07566e-31
7.02219e-31
5.05516e-30
3.57311e-32
7.9662e-35
1.11231e-34
1.60376e-37
2.36301e-32
3.59625e-33
3.9866e-33
3.26634e-33
2.37653e-32
1.64767e-37
1.33638e-53
2.0562e-29
2.49973e-31
6.36784e-35
1.64314e-39
2.60145e-44
1.55071e-39
6.14896e-35
2.35584e-31
1.97396e-29
1.31858e-29
3.91329e-32
5.6287e-36
1.70887e-39
4.7352e-40
1.57584e-39
5.96881e-36
3.91507e-32
1.30205e-29
1.92788e-30
1.01301e-34
8.35615e-36
4.053e-37
4.00174e-40
4.22755e-37
9.10945e-36
9.97231e-35
1.92816e-30
3.08038e-33
1.45872e-35
5.28518e-36
1.27024e-37
4.32777e-42
1.23572e-37
5.55734e-36
1.43155e-35
2.98057e-33
1.35408e-31
4.82501e-36
1.34189e-37
2.39255e-37
2.57694e-36
9.52405e-36
2.27149e-37
4.77675e-36
1.38872e-31
2.05998e-31
2.52161e-35
1.15337e-35
5.33224e-33
8.40858e-33
5.01125e-33
1.04684e-35
2.73923e-35
1.88142e-31
1.4676e-33
5.19712e-34
4.4288e-31
8.9463e-33
1.4089e-32
6.49929e-33
4.45062e-31
5.21171e-34
1.43033e-33
6.81987e-35
1.27006e-38
1.19751e-32
1.10268e-34
1.95773e-34
7.20754e-35
1.20278e-32
1.31537e-38
2.21083e-36
6.11181e-38
8.99206e-38
4.80819e-38
0
0
0
4.79915e-38
9.01145e-38
6.05468e-38
1.42461e-30
1.34518e-33
8.23671e-37
6.7422e-41
1.00604e-47
3.74464e-41
3.87842e-37
1.31366e-33
1.41695e-30
8.08149e-32
1.31398e-35
5.7898e-37
1.22045e-37
9.54158e-40
1.39721e-37
6.73854e-37
1.32591e-35
7.95337e-32
4.26196e-34
1.95226e-39
5.80653e-37
2.50481e-37
1.3022e-40
2.68e-37
6.90683e-37
3.95228e-38
4.12512e-34
3.54376e-37
1.17305e-39
3.65815e-38
2.08888e-38
2.23514e-44
2.19576e-38
4.11844e-38
1.36509e-39
3.08274e-37
1.80338e-34
2.13612e-41
5.94428e-41
3.9093e-41
4.40751e-41
8.2194e-36
1.312e-40
2.11809e-41
1.86937e-34
3.69732e-35
5.03994e-40
1.96997e-42
1.38028e-36
5.1962e-36
2.00391e-36
1.33542e-42
1.98111e-39
3.45462e-35
3.359e-39
4.02717e-42
8.53848e-35
2.0516e-38
4.71694e-38
1.26148e-38
8.59793e-35
1.26069e-41
2.31614e-40
1.47786e-39
8.6753e-42
7.77076e-41
1.56607e-55
6.78632e-55
0
7.79122e-41
5.82931e-42
1.60975e-40
1.57389e-38
4.11344e-38
4.08236e-38
8.19033e-39
7.58496e-39
8.15504e-39
4.08612e-38
4.15259e-38
2.59864e-38
2.64563e-33
5.09524e-35
1.02848e-37
1.00604e-47
2.3356e-47
3.48358e-42
4.30591e-38
9.91165e-37
1.42325e-33
2.86439e-34
2.89829e-36
3.35803e-38
6.22068e-38
1.65336e-40
7.31447e-38
5.09267e-38
1.50802e-36
6.69096e-35
1.04203e-36
1.95364e-40
4.40245e-39
4.3918e-39
1.91478e-48
5.33347e-39
4.21027e-39
1.105e-37
1.46355e-36
1.31949e-40
4.15639e-44
4.20805e-42
5.54789e-47
5.14874e-44
8.47537e-46
2.00239e-42
1.21861e-41
9.72238e-40
7.86168e-40
2.50728e-47
2.9028e-45
9.27182e-49
4.82057e-45
1.89781e-36
9.25905e-46
4.04008e-47
8.33539e-40
4.07073e-45
4.78975e-45
2.91287e-45
4.99444e-44
5.34991e-44
5.68159e-44
1.2108e-45
9.90976e-45
4.93453e-45
6.5976e-40
1.95903e-45
2.66341e-44
7.90961e-45
4.65017e-45
6.58342e-45
2.53479e-44
2.13334e-45
1.14261e-40
1.18245e-39
1.16845e-41
4.12657e-43
2.41895e-41
1.57346e-40
2.34972e-41
3.89929e-43
1.21065e-41
1.01592e-40
5.06187e-40
1.73927e-38
1.3873e-39
7.65484e-39
5.24972e-39
7.60513e-39
1.371e-39