/*--------------------------------*- C++ -*----------------------------------*\
  =========                 |
  \\      /  F ield         | OpenFOAM: The Open Source CFD Toolbox
   \\    /   O peration     | Website:  https://openfoam.org
    \\  /    A nd           | Version:  8
     \\/     M anipulation  |
\*---------------------------------------------------------------------------*/
FoamFile
{
    version     2.0;
    format      ascii;
    class       volScalarField;
    location    "0.03";
    object      alpha.oil;
}
// * * * * * * * * * * * * * * * * * * * * * * * * * * * * * * * * * * * * * //

dimensions      [0 0 0 0 0 0 0];

internalField   nonuniform List<scalar> 
180000
(
1.21193e-16
2.58171e-20
5.18442e-22
0
0
0
5.15452e-22
2.56684e-20
1.20536e-16
0
0
0
3.37933e-25
1.51039e-26
3.34839e-25
0
0
6.18599e-21
0.000359084
0
0
0
0
0
0
0
0.000358828
0.477535
0.477628
0.477635
0.47766
0.477671
0.47766
0.477634
0.477628
0.477535
0.483345
0.483292
0.483301
0.483313
0.483316
0.483313
0.483301
0.483292
0.483345
0.483593
0.48355
0.483553
0.483553
0.483553
0.483552
0.483553
0.48355
0.483593
0.483589
0.483571
0.483564
0.483558
0.483557
0.483558
0.483564
0.48357
0.483589
0.483552
0.483554
0.483557
0.483561
0.483561
0.483561
0.483556
0.483553
0.483552
0.483462
0.483468
0.483454
0.483448
0.483441
0.483448
0.483454
0.483473
0.483462
3.65521e-13
1.29629e-14
1.66473e-16
1.83474e-18
1.31594e-23
1.83238e-18
1.662e-16
1.30126e-14
3.67265e-13
1.70714e-32
2.20339e-18
1.45497e-17
8.18454e-21
1.27444e-26
8.1678e-21
1.45561e-17
2.20746e-18
5.27192e-31
2.75074e-05
0
0
6.24264e-53
2.4324e-46
1.18991e-41
9.0344e-42
0
2.74514e-05
0.416999
0.417016
0.417348
0.417666
0.417789
0.417666
0.417348
0.417016
0.416999
0.448539
0.448372
0.448339
0.448369
0.448378
0.448369
0.448339
0.448372
0.448539
0.451177
0.451106
0.451075
0.451026
0.451017
0.451026
0.451075
0.451106
0.451177
0.451507
0.451254
0.451261
0.451257
0.451253
0.451257
0.45126
0.451254
0.451507
0.451554
0.451265
0.451214
0.451234
0.451233
0.451234
0.451213
0.451265
0.451554
0.451755
0.451519
0.451346
0.451299
0.451292
0.451299
0.451346
0.451519
0.451754
2.18744e-13
4.78408e-15
1.73513e-16
0
0
0
1.76071e-16
4.97928e-15
2.19862e-13
2.85648e-14
4.3962e-16
7.39107e-18
0
3.15323e-20
1.16751e-30
6.69143e-18
5.77117e-16
2.86518e-14
2.54517e-22
0
0
0
0
6.74927e-35
0
5.4012e-35
0
0.263932
0.264919
0.266117
0.266889
0.267172
0.266889
0.266117
0.264919
0.263932
0.322477
0.322305
0.322173
0.322192
0.322202
0.322192
0.322173
0.322305
0.322477
0.327942
0.3278
0.327623
0.327496
0.32747
0.327496
0.327623
0.3278
0.327942
0.328662
0.328304
0.328143
0.328073
0.328055
0.328073
0.328144
0.328304
0.328662
0.329132
0.328713
0.328489
0.328437
0.328423
0.328436
0.32849
0.328714
0.329133
0.329807
0.329448
0.329246
0.329171
0.32914
0.329172
0.329247
0.329446
0.329805
4.14476e-13
3.07204e-13
2.46584e-13
7.5552e-13
1.55853e-17
7.54553e-13
2.46545e-13
3.08455e-13
4.14791e-13
8.58107e-14
1.34544e-13
7.77529e-14
2.67517e-16
9.55818e-20
2.68176e-16
7.772e-14
1.34747e-13
8.59037e-14
1.22719e-33
0
0
0
1.60996e-38
0
0
0
0
0.103891
0.105338
0.106784
0.107681
0.107983
0.107681
0.106784
0.105338
0.103891
0.161192
0.161305
0.161425
0.161576
0.161625
0.161575
0.161426
0.161304
0.161192
0.169929
0.169843
0.16967
0.169568
0.169553
0.169569
0.169671
0.169844
0.169929
0.171278
0.171161
0.17094
0.170848
0.170828
0.170849
0.170941
0.171162
0.171278
0.172089
0.171974
0.171786
0.171722
0.171692
0.171722
0.171786
0.171974
0.17209
0.172979
0.172917
0.172843
0.172788
0.172759
0.172788
0.172842
0.172913
0.172979
3.84129e-12
1.03181e-12
2.03051e-13
2.47452e-13
9.40073e-17
2.47296e-13
2.05652e-13
1.03409e-12
3.84314e-12
1.8722e-13
2.48906e-13
4.74535e-14
1.58093e-16
0
1.5704e-16
4.78129e-14
2.49227e-13
1.87173e-13
9.39138e-19
2.38485e-19
1.36189e-18
2.0911e-20
9.38256e-19
3.93622e-19
1.2247e-19
8.50626e-19
0
0.0253717
0.0262405
0.0270391
0.0275243
0.027684
0.0275243
0.0270392
0.0262404
0.0253718
0.0554721
0.0559171
0.0562739
0.056519
0.0565964
0.0565183
0.0562741
0.0559171
0.0554719
0.064598
0.0646342
0.0646076
0.064587
0.0645894
0.0645864
0.0646074
0.0646345
0.0645987
0.0663874
0.066391
0.0662981
0.0662536
0.0662459
0.0662554
0.0662989
0.0663912
0.0663873
0.067244
0.0672504
0.0671777
0.0671549
0.0671446
0.0671556
0.0671778
0.0672502
0.0672442
0.0679974
0.0680744
0.068072
0.0680512
0.0680379
0.0680523
0.0680712
0.0680743
0.0679966
3.18414e-12
2.66038e-12
9.30393e-12
1.15943e-12
1.07612e-15
1.159e-12
9.32531e-12
2.66341e-12
3.18903e-12
8.02583e-13
1.15015e-13
6.79227e-14
4.27087e-15
1.45662e-17
4.26642e-15
6.81222e-14
1.15131e-13
7.92808e-13
0
0
0
7.43015e-20
9.49494e-20
0
0
0
0
0.00315965
0.00335998
0.00354434
0.00365675
0.0036938
0.00365677
0.00354443
0.00335994
0.00315968
0.0104266
0.0106892
0.0108965
0.0110271
0.0110686
0.0110269
0.0108967
0.0106892
0.0104265
0.0147747
0.0148573
0.014907
0.0149334
0.0149441
0.014933
0.0149067
0.0148575
0.0147752
0.0160235
0.0160449
0.0160295
0.0160233
0.0160241
0.0160242
0.0160298
0.0160449
0.0160234
0.0165091
0.0165316
0.0165135
0.0165086
0.0165077
0.0165093
0.0165137
0.0165315
0.0165089
0.0168792
0.0169265
0.0169373
0.0169348
0.0169309
0.0169342
0.0169372
0.016927
0.0168798
5.1698e-11
9.5667e-12
3.71809e-11
3.15471e-12
3.33033e-15
3.15211e-12
3.72184e-11
9.53203e-12
5.11406e-11
4.12263e-12
1.29331e-13
1.02847e-13
4.47671e-14
2.84172e-17
4.47208e-14
1.02878e-13
1.29172e-13
4.09702e-12
0
0
3.5927e-21
0
0
8.57953e-21
0
0
0
0.000138617
0.000153559
0.000167956
0.000176929
0.000179904
0.00017693
0.000167967
0.000153555
0.00013862
0.000771306
0.000815606
0.000851433
0.000873606
0.000880726
0.000873577
0.00085148
0.000815605
0.000771297
0.00151174
0.00154313
0.00156445
0.00157638
0.00158042
0.00157629
0.00156437
0.00154319
0.00151183
0.00184916
0.00186007
0.00186272
0.00186446
0.00186541
0.00186461
0.00186276
0.00186009
0.00184915
0.00197528
0.00198311
0.0019822
0.00198219
0.0019825
0.00198239
0.00198224
0.00198305
0.00197522
0.00205631
0.00206735
0.00206989
0.00207066
0.00207061
0.0020708
0.00206989
0.00206736
0.00205636
2.06089e-10
5.02636e-11
3.47581e-11
2.16957e-12
9.78861e-16
2.16804e-12
3.47558e-11
5.02917e-11
2.05043e-10
6.01854e-12
1.85067e-13
2.44169e-13
3.78518e-14
3.04878e-18
3.77973e-14
2.44312e-13
1.84773e-13
5.97949e-12
1.00221e-22
1.02835e-22
8.91618e-23
1.66259e-22
5.37974e-23
4.89543e-24
2.20484e-23
0
7.37845e-23
1.88944e-06
2.20496e-06
2.52405e-06
2.72948e-06
2.79877e-06
2.72949e-06
2.52434e-06
2.20482e-06
1.88948e-06
1.89755e-05
2.09031e-05
2.25026e-05
2.35024e-05
2.38286e-05
2.35014e-05
2.2505e-05
2.0903e-05
1.89753e-05
5.54568e-05
5.7992e-05
5.97708e-05
6.07695e-05
6.10962e-05
6.07628e-05
5.97664e-05
5.79945e-05
5.54619e-05
8.15499e-05
8.27215e-05
8.32981e-05
8.36045e-05
8.37163e-05
8.36135e-05
8.33006e-05
8.27236e-05
8.15512e-05
9.25166e-05
9.32695e-05
9.33548e-05
9.34299e-05
9.34955e-05
9.34518e-05
9.33594e-05
9.32668e-05
9.25125e-05
9.86037e-05
9.959e-05
9.9814e-05
9.99329e-05
9.99778e-05
9.99341e-05
9.98135e-05
9.95918e-05
9.86041e-05
1.40277e-10
7.04145e-11
5.71607e-11
4.87217e-13
1.64828e-17
4.86918e-13
5.71886e-11
7.04867e-11
1.39743e-10
8.63956e-12
7.38133e-13
5.35195e-13
2.4148e-26
3.22418e-26
3.14256e-26
5.27909e-13
7.40993e-13
8.61624e-12
9.91492e-10
1.2425e-09
9.69578e-10
8.94966e-10
8.64081e-10
8.9379e-10
9.69668e-10
1.24242e-09
9.94526e-10
8.64618e-09
1.05156e-08
1.1989e-08
1.31027e-08
1.35508e-08
1.31021e-08
1.19901e-08
1.05144e-08
8.64723e-09
1.18593e-07
1.35229e-07
1.49263e-07
1.58262e-07
1.61249e-07
1.5825e-07
1.49283e-07
1.35229e-07
1.18589e-07
4.90893e-07
5.24919e-07
5.49499e-07
5.63252e-07
5.67696e-07
5.63141e-07
5.49455e-07
5.24917e-07
4.90949e-07
8.66665e-07
8.85682e-07
8.96477e-07
9.02166e-07
9.04104e-07
9.02301e-07
8.96524e-07
8.85719e-07
8.66711e-07
1.04638e-06
1.05923e-06
1.06127e-06
1.0628e-06
1.06417e-06
1.0631e-06
1.06134e-06
1.05925e-06
1.04634e-06
1.14494e-06
1.16056e-06
1.1643e-06
1.16661e-06
1.16739e-06
1.16649e-06
1.16428e-06
1.16072e-06
1.14512e-06
1.3272e-10
9.68447e-11
2.80853e-11
4.08313e-14
1.10279e-19
4.08214e-14
2.81112e-11
9.70251e-11
1.32421e-10
9.87152e-12
1.46507e-12
7.22812e-26
2.68058e-25
1.08141e-13
1.98071e-25
0
1.47491e-12
9.85543e-12
1.1587e-09
1.3542e-09
1.3571e-09
1.51793e-09
1.64714e-09
1.51823e-09
1.35728e-09
1.354e-09
1.16135e-09
5.74412e-10
6.38546e-10
6.29256e-10
7.09386e-10
7.45972e-10
7.09552e-10
6.29324e-10
6.3846e-10
5.75093e-10
1.64871e-10
1.83755e-10
1.86692e-10
1.9509e-10
1.98806e-10
1.95085e-10
1.86712e-10
1.83762e-10
1.64826e-10
5.28288e-10
5.75575e-10
6.0817e-10
6.28034e-10
6.34813e-10
6.27848e-10
6.0813e-10
5.75521e-10
5.28355e-10
1.08165e-09
1.11162e-09
1.1291e-09
1.1383e-09
1.14121e-09
1.13847e-09
1.12919e-09
1.11168e-09
1.08174e-09
1.37859e-09
1.39968e-09
1.40354e-09
1.40572e-09
1.40778e-09
1.406e-09
1.40357e-09
1.39987e-09
1.37867e-09
1.54998e-09
1.57025e-09
1.57554e-09
1.5794e-09
1.58064e-09
1.57985e-09
1.57547e-09
1.57049e-09
1.55045e-09
1.82908e-10
1.2554e-10
4.38237e-12
7.95324e-15
2.93147e-19
7.95518e-15
4.38237e-12
1.25755e-10
1.82871e-10
9.42925e-12
1.3327e-12
1.44901e-26
4.44962e-26
0
3.75442e-27
0
1.3291e-12
9.41518e-12
5.02932e-10
5.64206e-10
6.46533e-10
9.21875e-10
1.05125e-09
9.22403e-10
6.46647e-10
5.64108e-10
5.03585e-10
2.23306e-10
2.42237e-10
2.31236e-10
2.62031e-10
2.74625e-10
2.62158e-10
2.31267e-10
2.42228e-10
2.2347e-10
2.9149e-11
2.73154e-11
2.50096e-11
2.81474e-11
2.94515e-11
2.81609e-11
2.50147e-11
2.73138e-11
2.91548e-11
5.18821e-13
3.68406e-13
3.515e-13
4.46532e-13
4.70205e-13
4.46727e-13
3.51606e-13
3.68357e-13
5.18746e-13
1.04131e-13
1.06824e-13
1.08752e-13
1.09563e-13
1.09744e-13
1.09576e-13
1.08763e-13
1.06833e-13
1.04138e-13
1.34252e-13
1.35977e-13
1.36789e-13
1.37047e-13
1.3727e-13
1.37093e-13
1.36774e-13
1.36005e-13
1.34271e-13
1.54096e-13
1.55044e-13
1.55639e-13
1.56065e-13
1.56344e-13
1.56182e-13
1.55622e-13
1.55037e-13
1.54086e-13
2.57549e-10
6.50106e-11
4.02129e-13
6.20926e-16
1.42838e-20
6.2217e-16
4.01942e-13
6.49334e-11
2.57774e-10
1.06113e-11
3.26243e-13
0
6.74965e-27
0
0
0
3.26572e-13
1.06058e-11
1.26905e-10
1.42262e-10
1.4783e-10
1.96713e-10
2.153e-10
1.96884e-10
1.47851e-10
1.42273e-10
1.26931e-10
8.15113e-11
8.5224e-11
8.57752e-11
1.0665e-10
1.15475e-10
1.0673e-10
8.57929e-11
8.52308e-11
8.15525e-11
9.7601e-12
8.06086e-12
8.57721e-12
1.13611e-11
1.21906e-11
1.1372e-11
8.57976e-12
8.05921e-12
9.76414e-12
1.39233e-13
7.63125e-14
8.21851e-14
8.13966e-14
8.02176e-14
8.14525e-14
8.22133e-14
7.62927e-14
1.39199e-13
3.84549e-17
9.76743e-18
3.8515e-17
3.7924e-17
3.54149e-17
3.78875e-17
3.85513e-17
9.76886e-18
3.83945e-17
6.03635e-18
6.09741e-18
6.29009e-18
6.28086e-18
6.29869e-18
6.28378e-18
6.2893e-18
6.09825e-18
6.0368e-18
7.02749e-18
7.06067e-18
7.07091e-18
7.09466e-18
7.11056e-18
7.09647e-18
7.07009e-18
7.06084e-18
7.02629e-18
2.26075e-10
2.81347e-12
1.7427e-14
5.83983e-18
1.38227e-21
5.83152e-18
1.75084e-14
2.82366e-12
2.26134e-10
8.0939e-12
3.70986e-13
0
1.18661e-27
0
0
6.64815e-28
3.74535e-13
8.09332e-12
2.25648e-11
2.25941e-11
2.48122e-11
4.39408e-11
5.3697e-11
4.39879e-11
2.48216e-11
2.26017e-11
2.25585e-11
1.32873e-11
1.23755e-11
1.52436e-11
2.76936e-11
3.2589e-11
2.77291e-11
1.52501e-11
1.23759e-11
1.32894e-11
1.85433e-12
1.34627e-12
1.59403e-12
2.05116e-12
2.16358e-12
2.0537e-12
1.59473e-12
1.34617e-12
1.85439e-12
4.12079e-14
1.90723e-14
3.4393e-14
2.85153e-14
2.63659e-14
2.85305e-14
3.44133e-14
1.90703e-14
4.12173e-14
9.21286e-18
5.73534e-19
3.83211e-17
3.85518e-17
2.97186e-17
3.85413e-17
3.83649e-17
5.71507e-19
9.23296e-18
2.45212e-22
2.32992e-22
1.14089e-34
3.41853e-35
0
0
1.4282e-34
2.33011e-22
2.45221e-22
2.87428e-22
2.88699e-22
2.86826e-22
2.87852e-22
2.88541e-22
2.87842e-22
2.86786e-22
2.88708e-22
2.87413e-22
1.8588e-11
4.88265e-13
3.47359e-16
1.32515e-19
2.28445e-22
1.31362e-19
3.49184e-16
4.91804e-13
1.86e-11
5.45125e-12
1.09871e-13
4.70154e-30
8.0377e-30
8.35398e-29
0
0
1.10661e-13
5.45784e-12
1.22134e-12
6.93924e-13
1.18683e-12
4.72069e-12
6.67122e-12
4.72791e-12
1.1879e-12
6.94001e-13
1.2207e-12
5.34921e-13
3.77298e-13
6.46788e-13
1.74633e-12
2.22828e-12
1.74921e-12
6.47308e-13
3.77315e-13
5.34544e-13
1.22032e-13
8.1815e-14
1.62785e-13
2.27425e-13
2.47085e-13
2.2771e-13
1.62921e-13
8.18293e-14
1.22031e-13
1.9761e-15
7.20941e-16
6.69936e-15
8.74451e-15
7.8781e-15
8.75318e-15
6.7071e-15
7.20702e-16
1.97867e-15
0
0
5.88417e-19
2.34547e-18
1.70521e-18
2.35294e-18
5.89826e-19
0
0
7.69497e-27
9.83386e-40
0
0
9.89864e-40
0
0
1.598e-39
7.69489e-27
9.13106e-27
8.87862e-27
7.67073e-27
7.01337e-27
9.32777e-27
7.212e-27
7.66946e-27
8.87808e-27
9.13019e-27
4.50426e-12
7.47967e-14
3.34225e-18
1.13914e-20
5.28158e-24
1.14121e-20
3.34824e-18
7.50607e-14
4.51445e-12
1.5503e-12
1.66576e-15
0
0
3.66212e-33
0
1.00877e-35
1.66782e-15
1.55256e-12
6.17584e-14
1.66777e-15
8.03285e-15
5.97891e-14
9.23857e-14
5.9859e-14
8.04553e-15
1.66792e-15
6.17819e-14
5.36203e-15
2.16096e-15
8.77561e-15
2.88811e-14
4.42116e-14
2.89056e-14
8.78827e-15
2.16155e-15
5.35561e-15
5.76356e-16
3.14692e-16
3.90869e-15
1.17865e-14
1.42986e-14
1.1803e-14
3.91482e-15
3.14642e-16
5.7667e-16
1.33446e-18
2.08828e-19
3.03989e-17
1.20068e-16
1.14177e-16
1.20364e-16
3.04599e-17
2.09465e-19
1.33445e-18
0
8.23025e-21
1.62483e-19
1.43274e-19
6.96718e-20
1.39636e-19
1.6267e-19
8.32159e-21
0
2.00966e-23
7.3109e-22
1.07957e-20
1.31037e-20
4.22503e-21
1.29393e-20
1.08151e-20
7.34961e-22
2.01751e-23
3.40967e-24
2.09436e-24
2.13324e-23
3.72976e-23
5.44442e-24
3.72054e-23
2.13977e-23
2.06857e-24
3.42459e-24
3.02767e-13
8.59558e-17
4.9693e-20
2.96085e-22
2.11278e-29
3.05309e-22
5.01517e-20
8.59261e-17
3.03246e-13
6.83877e-14
1.09792e-16
5.33492e-21
0
1.0727e-35
0
5.55779e-21
1.10607e-16
6.84211e-14
5.57576e-15
2.35634e-18
5.23302e-17
5.02538e-16
1.17094e-15
5.01798e-16
5.24564e-17
2.35539e-18
5.59106e-15
3.63081e-17
7.00331e-19
3.50214e-17
2.95903e-16
6.07626e-16
2.95833e-16
3.51054e-17
7.00169e-19
3.62808e-17
9.83596e-20
3.66078e-21
1.09991e-18
1.40306e-17
2.20959e-17
1.40707e-17
1.10271e-18
3.66242e-21
9.83115e-20
8.39828e-23
9.15765e-22
3.79918e-19
9.60612e-19
6.96098e-19
9.49956e-19
3.81172e-19
9.31057e-22
8.40162e-23
8.00543e-23
4.90703e-21
4.08069e-19
6.33839e-19
3.46248e-19
6.27405e-19
4.09028e-19
4.96184e-21
8.02097e-23
3.10798e-23
2.50678e-22
3.78337e-20
4.31831e-20
1.58334e-20
4.28728e-20
3.79279e-20
2.51408e-22
3.11609e-23
1.59631e-24
2.84191e-25
0
0
0
0
0
2.84398e-25
1.60365e-24
2.41622e-17
4.84112e-19
6.64147e-22
7.07312e-27
7.17515e-31
7.11023e-27
6.75434e-22
4.89469e-19
2.40103e-17
8.38985e-16
1.06312e-18
2.18556e-21
1.46937e-41
0
0
2.22261e-21
1.06241e-18
8.40818e-16
2.38706e-17
2.28569e-19
1.2941e-19
4.52751e-18
1.42911e-17
4.5146e-18
1.29873e-19
2.27541e-19
2.38124e-17
2.22624e-18
3.15396e-21
4.36276e-21
2.045e-19
6.49542e-19
2.04393e-19
4.3784e-21
3.13766e-21
2.21996e-18
2.12292e-20
3.04863e-25
2.62389e-23
1.31631e-22
1.68074e-22
1.29552e-22
2.63519e-23
3.04099e-25
2.12174e-20
2.00981e-23
3.03133e-24
9.09093e-21
4.01701e-20
2.88648e-20
3.95528e-20
9.12952e-21
3.09615e-24
2.00861e-23
4.04573e-23
3.48486e-23
1.08649e-19
1.67285e-19
8.66296e-20
1.65756e-19
1.08922e-19
3.47536e-23
4.05106e-23
1.14222e-23
4.78322e-24
7.37029e-24
2.98623e-24
4.46709e-25
3.03109e-24
7.37895e-24
4.80891e-24
1.14474e-23
1.43324e-24
1.37055e-24
5.26852e-25
0
0
0
5.26967e-25
1.37347e-24
1.43854e-24
5.42767e-20
2.40727e-21
1.50213e-25
6.92287e-28
5.86868e-31
6.90617e-28
1.48212e-25
2.42704e-21
5.39179e-20
1.23057e-19
4.26303e-20
8.96327e-22
5.01164e-26
3.66561e-49
5.11783e-26
8.73935e-22
4.23729e-20
1.22428e-19
3.25709e-19
1.96864e-20
7.34957e-24
5.08922e-22
2.56676e-21
5.08263e-22
7.34948e-24
1.95705e-20
3.23976e-19
1.22988e-19
8.7472e-23
7.47501e-27
9.14779e-26
2.19149e-25
9.15331e-26
7.49467e-27
8.71401e-23
1.22839e-19
1.34008e-21
4.54359e-28
1.05466e-26
1.27567e-25
1.89164e-25
1.25198e-25
1.06078e-26
4.49159e-28
1.23078e-21
2.5449e-24
8.19771e-27
5.45634e-24
3.44501e-23
2.36048e-23
3.39414e-23
5.48383e-24
8.17151e-27
2.4031e-24
4.59537e-24
3.17294e-25
6.45514e-25
1.65549e-24
5.30044e-25
1.71433e-24
6.46829e-25
3.1809e-25
4.61277e-24
3.62435e-24
2.19135e-24
1.92696e-24
1.00928e-24
5.98021e-25
1.00606e-24
1.92741e-24
2.19558e-24
3.63146e-24
9.36571e-25
1.01753e-24
9.16246e-25
2.0032e-25
1.65563e-25
1.94319e-25
9.16369e-25
1.01802e-24
9.37924e-25
4.59765e-22
1.4045e-23
4.07744e-26
1.84328e-28
1.08986e-31
1.83977e-28
4.02599e-26
1.36245e-23
4.58335e-22
6.75701e-22
5.58034e-22
7.34405e-24
3.93258e-29
4.98478e-49
3.71651e-29
7.31716e-24
5.53303e-22
6.71089e-22
1.41297e-21
6.53621e-23
1.76646e-29
3.07755e-29
8.65315e-29
3.0774e-29
1.74465e-29
6.50306e-23
1.40554e-21
5.32954e-22
5.64184e-27
1.36244e-31
5.72417e-31
2.12643e-30
5.6978e-31
1.32575e-31
5.6273e-27
5.35188e-22
1.73825e-24
4.50154e-30
5.82855e-31
2.55234e-29
2.73053e-29
3.39413e-29
6.62171e-31
4.58391e-30
1.10635e-24
2.52528e-25
5.06342e-28
3.7763e-26
9.66902e-29
3.93957e-29
8.48794e-29
3.78786e-26
5.01312e-28
2.49022e-25
9.96829e-25
5.82102e-25
1.59545e-24
1.52859e-24
7.23938e-25
1.54808e-24
1.59711e-24
5.82462e-25
9.98809e-25
7.70176e-25
6.35712e-25
1.25203e-24
9.01808e-25
5.22583e-25
8.99593e-25
1.2528e-24
6.35096e-25
7.71001e-25
1.07663e-25
9.09574e-26
2.11283e-25
6.692e-26
5.17165e-26
6.55079e-26
2.11451e-25
9.1055e-26
1.08301e-25
1.69288e-23
1.4888e-24
2.08577e-26
3.31675e-30
3.75976e-35
3.29783e-30
2.1126e-26
1.48709e-24
1.69024e-23
1.24502e-23
6.86228e-25
1.59123e-28
7.88208e-34
9.65315e-39
7.81189e-34
1.58883e-28
6.84821e-25
1.24275e-23
1.73392e-24
5.57273e-27
3.15767e-31
2.72293e-34
1.08024e-33
2.71377e-34
3.15182e-31
5.56208e-27
1.72987e-24
8.01184e-26
8.25528e-29
1.40109e-32
4.58677e-40
4.9228e-42
4.57362e-40
1.42152e-32
8.34639e-29
8.02774e-26
4.806e-27
3.77588e-30
3.27366e-36
5.91592e-30
2.14294e-30
5.43796e-30
2.02587e-33
3.88525e-30
4.95849e-27
2.37446e-26
1.49983e-30
9.1333e-27
2.19042e-25
9.15732e-26
2.21456e-25
9.19457e-27
1.28887e-30
2.41467e-26
8.85228e-26
2.16627e-25
7.73231e-25
6.74596e-25
3.53022e-25
6.70297e-25
7.73947e-25
2.16669e-25
8.81253e-26
2.18888e-26
1.57113e-26
8.2942e-26
9.23959e-26
4.25411e-26
9.43021e-26
8.30814e-26
1.57159e-26
2.19814e-26
0
0
0
0
0
0
0
0
0
5.50157e-24
8.14999e-25
4.6051e-28
8.3189e-34
9.81151e-41
8.21139e-34
4.60458e-28
8.15619e-25
5.49871e-24
3.51301e-24
3.97905e-26
6.00113e-31
2.7238e-34
1.099e-38
2.72826e-34
5.99755e-31
3.98313e-26
3.5082e-24
1.36812e-25
3.9292e-28
1.58137e-31
6.25772e-36
1.05507e-37
6.26424e-36
1.58214e-31
3.92948e-28
1.36605e-25
1.72735e-26
6.68732e-29
3.43569e-33
1.39046e-38
1.17425e-38
1.19265e-38
3.42327e-33
6.74255e-29
1.73434e-26
4.01154e-27
9.63067e-31
1.08323e-32
1.87169e-31
4.18116e-32
9.47024e-32
4.33494e-33
9.94818e-31
4.07089e-27
1.68652e-28
1.81855e-31
4.4686e-28
1.031e-25
4.19998e-26
1.04248e-25
4.52086e-28
1.80734e-31
1.68016e-28
6.17671e-28
2.56591e-28
6.51268e-27
1.23364e-26
5.4172e-27
1.24662e-26
6.51754e-27
2.56419e-28
6.20727e-28
8.93509e-33
3.49097e-33
1.63686e-32
1.98602e-34
3.02765e-35
2.23978e-34
1.63631e-32
3.50529e-33
9.17016e-33
9.56588e-34
2.01714e-33
1.02346e-33
4.6528e-34
5.94868e-34
4.62046e-34
1.02762e-33
2.0176e-33
6.1615e-34
3.54426e-24
2.27749e-26
1.29612e-31
1.36433e-38
1.69105e-62
2.47685e-38
1.2711e-31
2.28282e-26
3.54056e-24
4.72363e-25
5.705e-29
3.15546e-31
1.99868e-34
2.9917e-39
2.0088e-34
3.16386e-31
5.70155e-29
4.71469e-25
7.91435e-27
1.17557e-28
5.21861e-32
3.43928e-37
4.16085e-42
3.46428e-37
5.24456e-32
1.17742e-28
7.9105e-27
9.02628e-27
1.50284e-29
8.44019e-35
2.65038e-42
1.11324e-43
1.22454e-40
8.47238e-35
1.50953e-29
9.0221e-27
1.28105e-27
2.32976e-33
4.69573e-40
9.26841e-40
2.56274e-40
1.36082e-38
2.29795e-36
2.34543e-33
1.26727e-27
1.8483e-31
8.59451e-32
2.87345e-33
2.45191e-28
7.22735e-29
2.48211e-28
2.91321e-33
8.5807e-32
1.89774e-31
7.64763e-36
1.04916e-34
4.95825e-35
5.07932e-36
1.26121e-36
5.33315e-36
4.95906e-35
1.04957e-34
1.20588e-35
3.04164e-35
1.07914e-33
3.43274e-34
6.76821e-35
6.20941e-35
6.71401e-35
3.43373e-34
1.07906e-33
4.35849e-35
5.05371e-34
1.77508e-33
7.94814e-34
4.36568e-34
3.65261e-34
4.34738e-34
7.94995e-34
1.79058e-33
2.56639e-34
2.25745e-25
2.44885e-30
0
2.93242e-42
0
4.16025e-74
9.81592e-51
2.42391e-30
2.25041e-25
6.40412e-28
6.37208e-30
1.60013e-31
7.17981e-36
6.64858e-43
7.23034e-36
1.61784e-31
6.41062e-30
6.38571e-28
1.09918e-27
6.77029e-30
7.87765e-34
9.0886e-43
3.53283e-47
9.1654e-43
7.97815e-34
6.79595e-30
1.09635e-27
1.22129e-27
3.52883e-32
2.1927e-40
2.90081e-46
8.84447e-50
2.89862e-46
2.17483e-40
3.51617e-32
1.21321e-27
3.98007e-30
2.10758e-39
1.32256e-39
7.70458e-44
9.7367e-49
7.7891e-44
3.46763e-39
2.0285e-39
3.89982e-30
5.46504e-35
5.07534e-36
8.35542e-37
9.23073e-40
3.10275e-40
9.29405e-40
8.32894e-37
5.02311e-36
8.02363e-36
5.87594e-36
2.31636e-35
9.76944e-36
2.30169e-47
7.45118e-42
2.09799e-47
9.77236e-36
2.32208e-35
8.52038e-37
9.52861e-37
2.67609e-34
4.51623e-35
3.02663e-35
2.62299e-35
2.9943e-35
4.51961e-35
2.67721e-34
1.24178e-36
8.49094e-35
3.02096e-35
1.01244e-35
4.34434e-36
3.16397e-36
4.43075e-36
1.01251e-35
3.00937e-35
1.76485e-39
5.37488e-30
0
1.56756e-42
1.28021e-68
5.48314e-54
0
0
1.41376e-55
2.98391e-30
6.4728e-31
6.38769e-31
9.60016e-34
4.69314e-44
3.05709e-51
4.74004e-44
9.77456e-34
6.46655e-31
6.36972e-31
2.95292e-29
7.58274e-33
5.87567e-42
4.27895e-49
1.59204e-53
4.32081e-49
5.89944e-42
7.68221e-33
2.93907e-29
1.0463e-30
3.46613e-39
2.76681e-43
5.71686e-48
7.5396e-54
5.72687e-48
2.77465e-43
3.4557e-39
1.03437e-30
1.26544e-36
4.21793e-41
1.84497e-39
9.98887e-44
3.86254e-51
5.71873e-44
2.43911e-39
3.19617e-41
1.18087e-36
2.34042e-35
3.18297e-37
2.43421e-38
9.59343e-45
2.06826e-47
6.53425e-46
2.39561e-38
3.14575e-37
1.47598e-36
1.98707e-37
1.21303e-36
4.96465e-37
2.9447e-40
4.0256e-44
2.89721e-40
4.96862e-37
1.21336e-36
1.02778e-37
9.23741e-43
3.7383e-37
3.28532e-38
5.209e-38
2.79526e-38
5.28587e-38
3.28706e-38
3.74098e-37
9.54826e-51
1.79883e-37
3.3405e-41
2.60244e-42
2.17703e-46
1.47709e-46
3.86427e-46
2.46172e-42
7.28778e-41
6.04242e-42
0
6.13005e-39
0
2.40747e-73
3.65175e-54
9.15207e-56
0
7.66401e-75
9.5408e-60
1.0517e-32
1.56855e-34
4.73838e-44
3.81317e-51
6.11413e-56
3.40414e-51
4.79952e-44
1.60009e-34
1.04199e-32
7.21409e-34
8.6607e-42
1.85987e-48
1.01087e-52
5.50869e-54
0
2.52893e-48
8.68517e-42
7.20959e-34
3.30828e-38
4.03752e-41
3.12334e-45
1.79772e-50
1.57019e-56
1.75503e-50
3.14518e-45
4.04336e-41
3.3092e-38
3.31309e-38
1.06694e-42
4.63439e-40
2.48742e-44
4.42696e-54
1.17678e-44
7.01847e-41
7.71472e-43
2.98608e-38
8.99463e-39
1.39959e-41
2.2339e-41
1.34291e-46
4.58186e-51
7.1509e-47
2.01749e-41
1.40161e-41
4.2552e-38
6.33815e-43
5.69715e-41
4.56683e-41
1.11755e-40
2.23427e-47
1.06324e-40
4.57191e-41
5.68933e-41
2.74924e-41
1.10601e-44
7.65651e-47
3.82714e-47
3.58784e-50
7.88244e-50
9.22573e-50
2.77711e-47
0
2.23491e-43
1.02236e-39
1.76886e-41
6.38909e-43
0
0
0
7.0185e-43
6.75894e-41
2.74932e-42
6.27958e-38
0
0
0
0
6.14377e-56
2.55177e-60
1.6957e-74
1.85472e-62
5.09285e-37
1.11843e-44
9.84727e-51
1.73604e-52
2.2742e-56
0
6.85073e-51
1.13086e-44
5.05038e-37
2.44283e-42
0
1.73696e-49
4.09806e-51
5.50783e-57
6.61946e-54
7.59645e-67
5.05424e-58
2.44654e-42
2.97954e-40
2.66625e-43
1.33745e-48
5.48441e-54
5.64522e-59
7.22111e-56
1.23234e-48
2.68286e-43
2.97554e-40
1.67027e-40
3.48073e-47
1.03605e-43
9.60586e-54
1.17444e-60
8.92045e-55
6.03898e-45
3.58502e-47
1.47684e-40
2.55309e-44
2.70056e-49
3.06965e-48
4.52252e-55
3.33427e-55
3.65483e-55
3.06966e-48
2.70053e-49
1.01056e-42
3.70394e-50
3.87345e-50
3.36654e-50
1.31928e-55
4.15603e-56
1.31035e-55
3.39942e-50
3.87149e-50
0
2.7923e-50
6.10992e-51
1.45702e-49
4.20289e-51
1.2759e-55
4.58206e-52
6.07716e-66
0
1.26378e-43
3.36278e-41
2.2078e-42
0
4.30916e-45
1.28138e-48
1.10449e-45
0
1.15602e-41
1.20205e-43
4.42631e-69
0
0
0
3.515e-63
7.862e-72
1.74677e-60
6.19457e-65
1.06039e-66
3.94205e-46
3.73222e-51
5.6282e-52
2.41525e-53
4.23073e-59
4.04122e-78
0
3.67594e-51
3.95765e-46
0
2.98725e-48
2.58606e-49
3.89408e-53
4.61839e-62
1.30506e-54
5.48304e-51
6.73799e-50
0
7.51779e-43
5.35952e-48
1.32776e-51
6.36057e-60
3.87846e-63
4.45206e-59
5.4108e-53
4.8153e-48
7.52335e-43
5.301e-46
3.92341e-53
3.00152e-54
2.81515e-64
4.32894e-67
2.23287e-64
1.64001e-54
1.99514e-52
5.16374e-46
3.97459e-54
9.09482e-56
7.22739e-55
5.04058e-61
6.61501e-62
5.02651e-61
7.23104e-55
7.38359e-56
1.33995e-52
4.52843e-67
1.72873e-57
8.06989e-58
2.51278e-62
8.23777e-63
2.03007e-61
8.04597e-58
1.72815e-57
0
1.85418e-44
0
1.18885e-50
9.98223e-52
1.97871e-58
5.4584e-53
2.14169e-50
1.77725e-66
2.70227e-44
2.45948e-60
5.3114e-43
1.22204e-43
3.03977e-45
8.07424e-49
3.37919e-45
1.87331e-43
2.04625e-42
0
9.57363e-93
0
1.46773e-58
4.84581e-59
1.02451e-81
2.19787e-76
2.87093e-69
8.29712e-65
4.3226e-64
8.31096e-51
0
4.11679e-53
8.17741e-57
0
0
1.96386e-74
0
8.32046e-51
1.72147e-48
2.17361e-48
1.59099e-51
4.40284e-59
3.44869e-65
7.14737e-58
6.29489e-52
3.04029e-49
1.72426e-48
6.13386e-48
1.64138e-51
8.21768e-57
1.78555e-62
2.09964e-74
6.03951e-63
4.83299e-55
2.21739e-50
6.13403e-48
2.4385e-51
1.17584e-55
2.18196e-61
8.32127e-72
3.76197e-74
2.44953e-71
9.22054e-62
2.22075e-53
2.44783e-51
0
1.40244e-76
3.40616e-62
2.73935e-67
1.80221e-67
2.73911e-67
3.40739e-62
1.0428e-74
0
0
0
2.05519e-64
1.50354e-70
7.92632e-71
8.79471e-71
4.74071e-66
0
0
7.65801e-45
0
4.68328e-52
7.52673e-57
2.04531e-68
4.6147e-56
1.4247e-50
3.87419e-64
1.83687e-46
0
4.47197e-43
7.15147e-44
9.48531e-47
2.82594e-55
5.49296e-46
1.03898e-43
9.29076e-43
1.35893e-47
5.53211e-107
6.9468e-83
1.29487e-57
2.81998e-89
6.98449e-88
8.63743e-84
7.48885e-76
1.22082e-67
3.17946e-64
4.24053e-73
0
4.62292e-58
0
0
1.70678e-92
1.30771e-81
0
3.40245e-70
1.59311e-48
2.78982e-51
2.26403e-56
2.82698e-62
2.98867e-75
2.00929e-63
5.44706e-55
2.31908e-50
1.59277e-48
2.83865e-50
3.68229e-54
1.55059e-60
4.31007e-73
9.98636e-82
3.72938e-73
1.82977e-61
1.94202e-52
2.82795e-50
2.98014e-54
2.53476e-59
2.90124e-72
6.13282e-85
9.81587e-88
6.13216e-85
2.55227e-72
1.45161e-60
3.09158e-54
0
1.11557e-66
1.6911e-70
2.49286e-74
1.42206e-74
2.49167e-74
1.69561e-70
1.74766e-69
2.39024e-58
3.00799e-52
1.92505e-59
2.5149e-66
1.78957e-73
0
5.93616e-76
1.01019e-67
1.24643e-58
4.82058e-57
7.15297e-47
6.45549e-50
3.89008e-55
0
1.23343e-73
0
5.19949e-57
4.34446e-51
6.46183e-57
1.68997e-42
3.99645e-43
2.29214e-45
9.19254e-54
1.49837e-62
7.58319e-54
1.64298e-45
9.73644e-44
2.48304e-43
5.20473e-113
3.55821e-96
2.71862e-92
3.75066e-101
1.41359e-102
9.20427e-90
1.89056e-112
2.69671e-76
3.20263e-71
3.39579e-86
0
2.86407e-94
0
1.07201e-126
8.83863e-116
0
0
0
4.36663e-51
8.21102e-55
1.30611e-61
3.57505e-74
2.20877e-85
3.12743e-74
1.96197e-62
1.89734e-53
4.30422e-51
7.95933e-54
2.71857e-60
9.74928e-73
6.35063e-89
7.73714e-89
6.34838e-89
8.74264e-73
6.12995e-61
8.31397e-54
1.98877e-60
1.31046e-72
2.93587e-88
1.1323e-94
8.64978e-95
1.1322e-94
2.92898e-88
1.30389e-72
2.05854e-60
3.21061e-62
1.15319e-67
9.47827e-75
1.50951e-94
4.10724e-90
1.10456e-82
6.19887e-81
5.35267e-69
1.34266e-58
3.84159e-59
6.34498e-60
3.2613e-69
0
0
4.85262e-74
7.71811e-95
6.11092e-62
1.69546e-57
4.48693e-50
1.00089e-54
1.69431e-62
2.69607e-67
0
1.5673e-66
5.62437e-64
1.62504e-52
2.12478e-51
1.3784e-42
6.96989e-44
0
1.84441e-62
2.88567e-68
4.68412e-62
3.31602e-54
1.14171e-46
1.73704e-43
0
1.93388e-117
6.62268e-148
3.47156e-106
0
0
6.42061e-118
5.2747e-143
2.80816e-79
0
0
0
0
0
0
0
0
2.84153e-164
6.33065e-57
9.46825e-62
4.77488e-74
1.08156e-92
7.81978e-93
1.08143e-92
4.33759e-74
2.60683e-62
6.61542e-57
2.98413e-61
2.53818e-73
5.51824e-89
8.56551e-96
6.49482e-96
8.56493e-96
5.52017e-89
2.5309e-73
3.08036e-61
7.46455e-93
4.80073e-88
4.83585e-102
2.15765e-102
1.70103e-102